
  ___ ___ ___ _ _ _  
 |   |   |_  | | | | 
 | | | | | . | | | | 
 |__ |  _|___|_____|  22.8.0
 |___|_|             

User:   afonsos@vera05-2
Date:   Sun Feb 19 18:36:15 2023
Arch:   x86_64
Pid:    3252160
CWD:    /cephyr/users/afonsos/Vera/TIF320/Assignment4/Task1
Python: 3.10.4
gpaw:   /apps/Arch/software/GPAW/22.8.0-foss-2022a/lib/python3.10/site-packages/gpaw
_gpaw:  /apps/Arch/software/GPAW/22.8.0-foss-2022a/lib/python3.10/site-packages/
        _gpaw.cpython-310-x86_64-linux-gnu.so
ase:    /apps/Arch/software/ASE/3.22.1-foss-2022a/lib/python3.10/site-packages/ase (version 3.22.1)
numpy:  /apps/Arch/software/SciPy-bundle/2022.05-foss-2022a/lib/python3.10/site-packages/numpy (version 1.22.3)
scipy:  /apps/Arch/software/SciPy-bundle/2022.05-foss-2022a/lib/python3.10/site-packages/scipy (version 1.8.1)
libxc:  5.2.3
units:  Angstrom and eV
cores: 8
OpenMP: False
OMP_NUM_THREADS: 1

Input parameters:
  kpts: [12 12 12]
  mode: {ecut: 450.00000000000006,
         name: pw}
  xc: PBE

System changes: positions, numbers, cell, pbc, initial_charges, initial_magmoms 

Initialize ...

species:
  Rh:
    name: Rhodium
    id: 4e1d209aee696a641de1ffa1459b299f
    Z: 45.0
    valence: 15
    core: 30
    charge: 0.0
    file: /apps/Common/software/GPAW-setups/0.9.20000/Rh.PBE.gz
    compensation charges: {type: gauss,
                           rc: 0.38,
                           lmax: 2}
    cutoffs: {filter: 2.48,
              core: 2.35}
    valence states:
      #              energy  rcut
      - 5s(1.00)    -4.297   1.270
      - 4p(6.00)   -50.429   1.381
      - 5p(0.00)    -0.852   1.381
      - 4d(8.00)    -5.942   1.244
      -  s          22.915   1.270
      -  d          21.270   1.244
  
    # Using partial waves for Rh as LCAO basis

Reference energy: -130134.647000  # eV

Spin-paired calculation

Convergence criteria:
 Maximum [total energy] change in last 3 cyles: 0.0005 eV / electron
 Maximum integral of absolute [dens]ity change: 0.0001 electrons / valence electron
 Maximum integral of absolute [eigenst]ate change: 4e-08 eV^2 / valence electron
 Maximum number of scf [iter]ations: 333
 (Square brackets indicate name in SCF output, whereas a 'c' in
 the SCF output indicates the quantity has converged.)

Symmetries present (total): 48

  ( 1  0  0)  ( 1  0  0)  ( 1  0  0)  ( 1  0  0)  ( 1  0 -1)  ( 1  0 -1)
  ( 1  0 -1)  ( 1 -1  0)  ( 0  1  0)  ( 0  0  1)  ( 1  0  0)  ( 1 -1  0)
  ( 1 -1  0)  ( 1  0 -1)  ( 0  0  1)  ( 0  1  0)  ( 1 -1  0)  ( 1  0  0)

  ( 1  0 -1)  ( 1  0 -1)  ( 1 -1  0)  ( 1 -1  0)  ( 1 -1  0)  ( 1 -1  0)
  ( 0  1 -1)  ( 0  0 -1)  ( 1  0  0)  ( 1  0 -1)  ( 0 -1  1)  ( 0 -1  0)
  ( 0  0 -1)  ( 0  1 -1)  ( 1  0 -1)  ( 1  0  0)  ( 0 -1  0)  ( 0 -1  1)

  ( 0  1  0)  ( 0  1  0)  ( 0  1  0)  ( 0  1  0)  ( 0  1 -1)  ( 0  1 -1)
  ( 1  0  0)  ( 0  1 -1)  ( 0  0  1)  (-1  1  0)  ( 1  0 -1)  ( 0  1  0)
  ( 0  0  1)  (-1  1  0)  ( 1  0  0)  ( 0  1 -1)  ( 0  0 -1)  (-1  1  0)

  ( 0  1 -1)  ( 0  1 -1)  ( 0  0  1)  ( 0  0  1)  ( 0  0  1)  ( 0  0  1)
  ( 0  0 -1)  (-1  1  0)  ( 1  0  0)  ( 0  1  0)  ( 0 -1  1)  (-1  0  1)
  ( 1  0 -1)  ( 0  1  0)  ( 0  1  0)  ( 1  0  0)  (-1  0  1)  ( 0 -1  1)

  ( 0  0 -1)  ( 0  0 -1)  ( 0  0 -1)  ( 0  0 -1)  ( 0 -1  1)  ( 0 -1  1)
  ( 1  0 -1)  ( 0  1 -1)  ( 0 -1  0)  (-1  0  0)  ( 1 -1  0)  ( 0  0  1)
  ( 0  1 -1)  ( 1  0 -1)  (-1  0  0)  ( 0 -1  0)  ( 0 -1  0)  (-1  0  1)

  ( 0 -1  1)  ( 0 -1  1)  ( 0 -1  0)  ( 0 -1  0)  ( 0 -1  0)  ( 0 -1  0)
  ( 0 -1  0)  (-1  0  1)  ( 1 -1  0)  ( 0  0 -1)  ( 0 -1  1)  (-1  0  0)
  ( 1 -1  0)  ( 0  0  1)  ( 0 -1  1)  (-1  0  0)  ( 1 -1  0)  ( 0  0 -1)

  (-1  1  0)  (-1  1  0)  (-1  1  0)  (-1  1  0)  (-1  0  1)  (-1  0  1)
  ( 0  1  0)  ( 0  1 -1)  (-1  0  1)  (-1  0  0)  ( 0  0  1)  ( 0 -1  1)
  ( 0  1 -1)  ( 0  1  0)  (-1  0  0)  (-1  0  1)  ( 0 -1  1)  ( 0  0  1)

  (-1  0  1)  (-1  0  1)  (-1  0  0)  (-1  0  0)  (-1  0  0)  (-1  0  0)
  (-1  1  0)  (-1  0  0)  ( 0  0 -1)  ( 0 -1  0)  (-1  1  0)  (-1  0  1)
  (-1  0  0)  (-1  1  0)  ( 0 -1  0)  ( 0  0 -1)  (-1  0  1)  (-1  1  0)
Note: your k-points are not as symmetric as your crystal!

1728 k-points: 12 x 12 x 12 Monkhorst-Pack grid
182 k-points in the irreducible part of the Brillouin zone
       k-points in crystal coordinates                weights
   0:     0.04166667    0.04166667   -0.04166667          6/1728
   1:     0.04166667    0.04166667    0.04166667          2/1728
   2:     0.12500000   -0.04166667   -0.04166667          6/1728
   3:     0.12500000    0.04166667   -0.12500000         12/1728
   4:     0.12500000    0.04166667   -0.04166667         12/1728
   5:     0.12500000    0.04166667    0.04166667          6/1728
   6:     0.12500000    0.12500000   -0.12500000          6/1728
   7:     0.12500000    0.12500000   -0.04166667          6/1728
   8:     0.12500000    0.12500000    0.04166667          6/1728
   9:     0.12500000    0.12500000    0.12500000          2/1728
          ...
 181:     0.45833333    0.45833333    0.45833333          2/1728

Wave functions: Plane wave expansion
  Cutoff energy: 450.000 eV
  Number of coefficients (min, max): 169, 188
  Pulay-stress correction: 0.000000 eV/Ang^3 (de/decut=0.000000)
  Using FFTW library
  ScaLapack parameters: grid=1x1, blocksize=None
  Wavefunction extrapolation:
    Improved wavefunction reuse through dual PAW basis 

Occupation numbers: Fermi-Dirac:
  width: 0.1000  # eV
 

Eigensolver
   Davidson(niter=2) 

Densities:
  Coarse grid: 12*12*12 grid
  Fine grid: 24*24*24 grid
  Total Charge: 0.000000 

Density mixing:
  Method: separate
  Backend: pulay
  Linear mixing parameter: 0.05
  old densities: 5
  Damping of long wavelength oscillations: 50 

Hamiltonian:
  XC and Coulomb potentials evaluated on a 24*24*24 grid
  Using the PBE Exchange-Correlation functional
  External potential:
    NoExternalPotential
 

XC parameters: PBE with 2 nearest neighbor stencil

Memory estimate:
  Process memory now: 323.79 MiB
  Calculator: 2.35 MiB
    Density: 0.66 MiB
      Arrays: 0.34 MiB
      Localized functions: 0.19 MiB
      Mixer: 0.13 MiB
    Hamiltonian: 0.23 MiB
      Arrays: 0.22 MiB
      XC: 0.00 MiB
      Poisson: 0.00 MiB
      vbar: 0.00 MiB
    Wavefunctions: 1.46 MiB
      Arrays psit_nG: 0.76 MiB
      Eigensolver: 0.07 MiB
      Projections: 0.07 MiB
      Projectors: 0.43 MiB
      PW-descriptor: 0.13 MiB

Total number of cores used: 8
Parallelization over k-points: 8

Number of atoms: 1
Number of atomic orbitals: 12
Number of bands in calculation: 12
Number of valence electrons: 15
Bands to converge: occupied

... initialized

Initializing position-dependent things.

Density initialized from atomic densities
Creating initial wave functions:
  12 bands from LCAO basis set

                
                
                
       Rh       
                
                
                
                

Positions:
   0 Rh     0.000000    0.000000    0.000000    ( 0.0000,  0.0000,  0.0000)

Unit cell:
           periodic     x           y           z      points  spacing
  1. axis:    yes    0.000000    1.600000    1.600000    12     0.1540
  2. axis:    yes    1.600000    0.000000    1.600000    12     0.1540
  3. axis:    yes    1.600000    1.600000    0.000000    12     0.1540

  Lengths:   2.262742   2.262742   2.262742
  Angles:   60.000000  60.000000  60.000000

Effective grid spacing dv^(1/3) = 0.1680

     iter     time        total  log10-change:
                         energy  eigst   dens
iter:   1 18:36:17    -1.996498
iter:   2 18:36:17    -1.919753  -1.68  -1.49
iter:   3 18:36:17    -1.505651  -1.25  -1.51
iter:   4 18:36:17    -1.462692  -2.90  -1.82
iter:   5 18:36:18    -1.495714  -2.11  -2.04
iter:   6 18:36:18    -1.452955  -1.75  -2.13
iter:   7 18:36:18    -1.457976  -2.55  -2.80
iter:   8 18:36:18    -1.455592c -4.25  -3.23
iter:   9 18:36:19    -1.455723c -4.44  -3.56
iter:  10 18:36:19    -1.455728c -5.82  -3.76
iter:  11 18:36:19    -1.455700c -5.87  -4.34c
iter:  12 18:36:19    -1.455692c -5.99  -3.99
iter:  13 18:36:19    -1.455689c -6.54  -4.07c
iter:  14 18:36:20    -1.455689c -8.31c -5.25c

Converged after 14 iterations.

Dipole moment: (0.000000, 0.000000, 0.000000) |e|*Ang

Energy contributions relative to reference atoms: (reference = -130134.647000)

Kinetic:       +111.672110
Potential:      -93.714744
External:        +0.000000
XC:             -18.647159
Entropy (-ST):   -0.018459
Local:           -0.756667
--------------------------
Free energy:     -1.464919
Extrapolated:    -1.455689

Showing only first 2 kpts
 Kpt  Band  Eigenvalues  Occupancy
  0     5     17.69180    2.00000
  0     6     17.70650    2.00000
  0     7     21.64655    2.00000
  0     8     22.10166    2.00000

  1     5     17.50380    2.00000
  1     6     17.50380    2.00000
  1     7     21.99307    2.00000
  1     8     21.99307    2.00000


Fermi level: 24.25300

No gap
System changes: cell 

Initialize ...

species:
  Rh:
    name: Rhodium
    id: 4e1d209aee696a641de1ffa1459b299f
    Z: 45.0
    valence: 15
    core: 30
    charge: 0.0
    file: /apps/Common/software/GPAW-setups/0.9.20000/Rh.PBE.gz
    compensation charges: {type: gauss,
                           rc: 0.38,
                           lmax: 2}
    cutoffs: {filter: 2.48,
              core: 2.35}
    valence states:
      #              energy  rcut
      - 5s(1.00)    -4.297   1.270
      - 4p(6.00)   -50.429   1.381
      - 5p(0.00)    -0.852   1.381
      - 4d(8.00)    -5.942   1.244
      -  s          22.915   1.270
      -  d          21.270   1.244
  
    # Using partial waves for Rh as LCAO basis

Reference energy: -130134.647000  # eV

Spin-paired calculation

Convergence criteria:
 Maximum [total energy] change in last 3 cyles: 0.0005 eV / electron
 Maximum integral of absolute [dens]ity change: 0.0001 electrons / valence electron
 Maximum integral of absolute [eigenst]ate change: 4e-08 eV^2 / valence electron
 Maximum number of scf [iter]ations: 333
 (Square brackets indicate name in SCF output, whereas a 'c' in
 the SCF output indicates the quantity has converged.)

Symmetries present (total): 48

  ( 1  0  0)  ( 1  0  0)  ( 1  0  0)  ( 1  0  0)  ( 1  0 -1)  ( 1  0 -1)
  ( 1  0 -1)  ( 1 -1  0)  ( 0  1  0)  ( 0  0  1)  ( 1  0  0)  ( 1 -1  0)
  ( 1 -1  0)  ( 1  0 -1)  ( 0  0  1)  ( 0  1  0)  ( 1 -1  0)  ( 1  0  0)

  ( 1  0 -1)  ( 1  0 -1)  ( 1 -1  0)  ( 1 -1  0)  ( 1 -1  0)  ( 1 -1  0)
  ( 0  1 -1)  ( 0  0 -1)  ( 1  0  0)  ( 1  0 -1)  ( 0 -1  1)  ( 0 -1  0)
  ( 0  0 -1)  ( 0  1 -1)  ( 1  0 -1)  ( 1  0  0)  ( 0 -1  0)  ( 0 -1  1)

  ( 0  1  0)  ( 0  1  0)  ( 0  1  0)  ( 0  1  0)  ( 0  1 -1)  ( 0  1 -1)
  ( 1  0  0)  ( 0  1 -1)  ( 0  0  1)  (-1  1  0)  ( 1  0 -1)  ( 0  1  0)
  ( 0  0  1)  (-1  1  0)  ( 1  0  0)  ( 0  1 -1)  ( 0  0 -1)  (-1  1  0)

  ( 0  1 -1)  ( 0  1 -1)  ( 0  0  1)  ( 0  0  1)  ( 0  0  1)  ( 0  0  1)
  ( 0  0 -1)  (-1  1  0)  ( 1  0  0)  ( 0  1  0)  ( 0 -1  1)  (-1  0  1)
  ( 1  0 -1)  ( 0  1  0)  ( 0  1  0)  ( 1  0  0)  (-1  0  1)  ( 0 -1  1)

  ( 0  0 -1)  ( 0  0 -1)  ( 0  0 -1)  ( 0  0 -1)  ( 0 -1  1)  ( 0 -1  1)
  ( 1  0 -1)  ( 0  1 -1)  ( 0 -1  0)  (-1  0  0)  ( 1 -1  0)  ( 0  0  1)
  ( 0  1 -1)  ( 1  0 -1)  (-1  0  0)  ( 0 -1  0)  ( 0 -1  0)  (-1  0  1)

  ( 0 -1  1)  ( 0 -1  1)  ( 0 -1  0)  ( 0 -1  0)  ( 0 -1  0)  ( 0 -1  0)
  ( 0 -1  0)  (-1  0  1)  ( 1 -1  0)  ( 0  0 -1)  ( 0 -1  1)  (-1  0  0)
  ( 1 -1  0)  ( 0  0  1)  ( 0 -1  1)  (-1  0  0)  ( 1 -1  0)  ( 0  0 -1)

  (-1  1  0)  (-1  1  0)  (-1  1  0)  (-1  1  0)  (-1  0  1)  (-1  0  1)
  ( 0  1  0)  ( 0  1 -1)  (-1  0  1)  (-1  0  0)  ( 0  0  1)  ( 0 -1  1)
  ( 0  1 -1)  ( 0  1  0)  (-1  0  0)  (-1  0  1)  ( 0 -1  1)  ( 0  0  1)

  (-1  0  1)  (-1  0  1)  (-1  0  0)  (-1  0  0)  (-1  0  0)  (-1  0  0)
  (-1  1  0)  (-1  0  0)  ( 0  0 -1)  ( 0 -1  0)  (-1  1  0)  (-1  0  1)
  (-1  0  0)  (-1  1  0)  ( 0 -1  0)  ( 0  0 -1)  (-1  0  1)  (-1  1  0)
Note: your k-points are not as symmetric as your crystal!

1728 k-points: 12 x 12 x 12 Monkhorst-Pack grid
182 k-points in the irreducible part of the Brillouin zone
       k-points in crystal coordinates                weights
   0:     0.04166667    0.04166667   -0.04166667          6/1728
   1:     0.04166667    0.04166667    0.04166667          2/1728
   2:     0.12500000   -0.04166667   -0.04166667          6/1728
   3:     0.12500000    0.04166667   -0.12500000         12/1728
   4:     0.12500000    0.04166667   -0.04166667         12/1728
   5:     0.12500000    0.04166667    0.04166667          6/1728
   6:     0.12500000    0.12500000   -0.12500000          6/1728
   7:     0.12500000    0.12500000   -0.04166667          6/1728
   8:     0.12500000    0.12500000    0.04166667          6/1728
   9:     0.12500000    0.12500000    0.12500000          2/1728
          ...
 181:     0.45833333    0.45833333    0.45833333          2/1728

Wave functions: Plane wave expansion
  Cutoff energy: 450.000 eV
  Number of coefficients (min, max): 172, 194
  Pulay-stress correction: 0.000000 eV/Ang^3 (de/decut=0.000000)
  Using FFTW library
  ScaLapack parameters: grid=1x1, blocksize=None
  Wavefunction extrapolation:
    Improved wavefunction reuse through dual PAW basis 

Occupation numbers: Fermi-Dirac:
  width: 0.1000  # eV
 

Eigensolver
   Davidson(niter=2) 

Densities:
  Coarse grid: 12*12*12 grid
  Fine grid: 24*24*24 grid
  Total Charge: 0.000000 

Density mixing:
  Method: separate
  Backend: pulay
  Linear mixing parameter: 0.05
  old densities: 5
  Damping of long wavelength oscillations: 50 

Hamiltonian:
  XC and Coulomb potentials evaluated on a 24*24*24 grid
  Using the PBE Exchange-Correlation functional
  External potential:
    NoExternalPotential
 

XC parameters: PBE with 2 nearest neighbor stencil

Memory estimate:
  Process memory now: 323.79 MiB
  Calculator: 2.41 MiB
    Density: 0.67 MiB
      Arrays: 0.34 MiB
      Localized functions: 0.20 MiB
      Mixer: 0.13 MiB
    Hamiltonian: 0.23 MiB
      Arrays: 0.22 MiB
      XC: 0.00 MiB
      Poisson: 0.00 MiB
      vbar: 0.00 MiB
    Wavefunctions: 1.50 MiB
      Arrays psit_nG: 0.78 MiB
      Eigensolver: 0.07 MiB
      Projections: 0.07 MiB
      Projectors: 0.45 MiB
      PW-descriptor: 0.13 MiB

Total number of cores used: 8
Parallelization over k-points: 8

Number of atoms: 1
Number of atomic orbitals: 12
Number of bands in calculation: 12
Number of valence electrons: 15
Bands to converge: occupied

... initialized

Initializing position-dependent things.

Density initialized from atomic densities
Creating initial wave functions:
  12 bands from LCAO basis set

                
                
                
       Rh       
                
                
                
                

Positions:
   0 Rh     0.000000    0.000000    0.000000    ( 0.0000,  0.0000,  0.0000)

Unit cell:
           periodic     x           y           z      points  spacing
  1. axis:    yes    0.000000    1.620513    1.620513    12     0.1559
  2. axis:    yes    1.620513    0.000000    1.620513    12     0.1559
  3. axis:    yes    1.620513    1.620513    0.000000    12     0.1559

  Lengths:   2.291751   2.291751   2.291751
  Angles:   60.000000  60.000000  60.000000

Effective grid spacing dv^(1/3) = 0.1701

     iter     time        total  log10-change:
                         energy  eigst   dens
iter:   1 18:36:22    -2.956379
iter:   2 18:36:22    -2.880472  -1.69  -1.47
iter:   3 18:36:22    -2.475925  -1.23  -1.50
iter:   4 18:36:22    -2.436924  -2.83  -1.85
iter:   5 18:36:23    -2.459083  -2.30  -2.08
iter:   6 18:36:23    -2.421865  -1.74  -2.19
iter:   7 18:36:23    -2.421674  -3.14  -2.88
iter:   8 18:36:23    -2.424530c -3.10  -2.83
iter:   9 18:36:23    -2.424326c -4.35  -3.22
iter:  10 18:36:24    -2.424374c -4.86  -3.55
iter:  11 18:36:24    -2.424374c -6.41  -3.84
iter:  12 18:36:24    -2.424382c -5.68  -3.90
iter:  13 18:36:24    -2.424382c -7.41c -4.87c

Converged after 13 iterations.

Dipole moment: (-0.000000, 0.000000, 0.000000) |e|*Ang

Energy contributions relative to reference atoms: (reference = -130134.647000)

Kinetic:        +97.420987
Potential:      -82.064075
External:        +0.000000
XC:             -17.150256
Entropy (-ST):   -0.019637
Local:           -0.621220
--------------------------
Free energy:     -2.434200
Extrapolated:    -2.424382

Showing only first 2 kpts
 Kpt  Band  Eigenvalues  Occupancy
  0     5     16.92547    2.00000
  0     6     16.93941    2.00000
  0     7     20.66855    2.00000
  0     8     21.09305    2.00000

  1     5     16.74866    2.00000
  1     6     16.74866    2.00000
  1     7     20.99051    2.00000
  1     8     20.99051    2.00000


Fermi level: 23.11081

No gap
System changes: cell 

Initialize ...

species:
  Rh:
    name: Rhodium
    id: 4e1d209aee696a641de1ffa1459b299f
    Z: 45.0
    valence: 15
    core: 30
    charge: 0.0
    file: /apps/Common/software/GPAW-setups/0.9.20000/Rh.PBE.gz
    compensation charges: {type: gauss,
                           rc: 0.38,
                           lmax: 2}
    cutoffs: {filter: 2.48,
              core: 2.35}
    valence states:
      #              energy  rcut
      - 5s(1.00)    -4.297   1.270
      - 4p(6.00)   -50.429   1.381
      - 5p(0.00)    -0.852   1.381
      - 4d(8.00)    -5.942   1.244
      -  s          22.915   1.270
      -  d          21.270   1.244
  
    # Using partial waves for Rh as LCAO basis

Reference energy: -130134.647000  # eV

Spin-paired calculation

Convergence criteria:
 Maximum [total energy] change in last 3 cyles: 0.0005 eV / electron
 Maximum integral of absolute [dens]ity change: 0.0001 electrons / valence electron
 Maximum integral of absolute [eigenst]ate change: 4e-08 eV^2 / valence electron
 Maximum number of scf [iter]ations: 333
 (Square brackets indicate name in SCF output, whereas a 'c' in
 the SCF output indicates the quantity has converged.)

Symmetries present (total): 48

  ( 1  0  0)  ( 1  0  0)  ( 1  0  0)  ( 1  0  0)  ( 1  0 -1)  ( 1  0 -1)
  ( 1  0 -1)  ( 1 -1  0)  ( 0  1  0)  ( 0  0  1)  ( 1  0  0)  ( 1 -1  0)
  ( 1 -1  0)  ( 1  0 -1)  ( 0  0  1)  ( 0  1  0)  ( 1 -1  0)  ( 1  0  0)

  ( 1  0 -1)  ( 1  0 -1)  ( 1 -1  0)  ( 1 -1  0)  ( 1 -1  0)  ( 1 -1  0)
  ( 0  1 -1)  ( 0  0 -1)  ( 1  0  0)  ( 1  0 -1)  ( 0 -1  1)  ( 0 -1  0)
  ( 0  0 -1)  ( 0  1 -1)  ( 1  0 -1)  ( 1  0  0)  ( 0 -1  0)  ( 0 -1  1)

  ( 0  1  0)  ( 0  1  0)  ( 0  1  0)  ( 0  1  0)  ( 0  1 -1)  ( 0  1 -1)
  ( 1  0  0)  ( 0  1 -1)  ( 0  0  1)  (-1  1  0)  ( 1  0 -1)  ( 0  1  0)
  ( 0  0  1)  (-1  1  0)  ( 1  0  0)  ( 0  1 -1)  ( 0  0 -1)  (-1  1  0)

  ( 0  1 -1)  ( 0  1 -1)  ( 0  0  1)  ( 0  0  1)  ( 0  0  1)  ( 0  0  1)
  ( 0  0 -1)  (-1  1  0)  ( 1  0  0)  ( 0  1  0)  ( 0 -1  1)  (-1  0  1)
  ( 1  0 -1)  ( 0  1  0)  ( 0  1  0)  ( 1  0  0)  (-1  0  1)  ( 0 -1  1)

  ( 0  0 -1)  ( 0  0 -1)  ( 0  0 -1)  ( 0  0 -1)  ( 0 -1  1)  ( 0 -1  1)
  ( 1  0 -1)  ( 0  1 -1)  ( 0 -1  0)  (-1  0  0)  ( 1 -1  0)  ( 0  0  1)
  ( 0  1 -1)  ( 1  0 -1)  (-1  0  0)  ( 0 -1  0)  ( 0 -1  0)  (-1  0  1)

  ( 0 -1  1)  ( 0 -1  1)  ( 0 -1  0)  ( 0 -1  0)  ( 0 -1  0)  ( 0 -1  0)
  ( 0 -1  0)  (-1  0  1)  ( 1 -1  0)  ( 0  0 -1)  ( 0 -1  1)  (-1  0  0)
  ( 1 -1  0)  ( 0  0  1)  ( 0 -1  1)  (-1  0  0)  ( 1 -1  0)  ( 0  0 -1)

  (-1  1  0)  (-1  1  0)  (-1  1  0)  (-1  1  0)  (-1  0  1)  (-1  0  1)
  ( 0  1  0)  ( 0  1 -1)  (-1  0  1)  (-1  0  0)  ( 0  0  1)  ( 0 -1  1)
  ( 0  1 -1)  ( 0  1  0)  (-1  0  0)  (-1  0  1)  ( 0 -1  1)  ( 0  0  1)

  (-1  0  1)  (-1  0  1)  (-1  0  0)  (-1  0  0)  (-1  0  0)  (-1  0  0)
  (-1  1  0)  (-1  0  0)  ( 0  0 -1)  ( 0 -1  0)  (-1  1  0)  (-1  0  1)
  (-1  0  0)  (-1  1  0)  ( 0 -1  0)  ( 0  0 -1)  (-1  0  1)  (-1  1  0)
Note: your k-points are not as symmetric as your crystal!

1728 k-points: 12 x 12 x 12 Monkhorst-Pack grid
182 k-points in the irreducible part of the Brillouin zone
       k-points in crystal coordinates                weights
   0:     0.04166667    0.04166667   -0.04166667          6/1728
   1:     0.04166667    0.04166667    0.04166667          2/1728
   2:     0.12500000   -0.04166667   -0.04166667          6/1728
   3:     0.12500000    0.04166667   -0.12500000         12/1728
   4:     0.12500000    0.04166667   -0.04166667         12/1728
   5:     0.12500000    0.04166667    0.04166667          6/1728
   6:     0.12500000    0.12500000   -0.12500000          6/1728
   7:     0.12500000    0.12500000   -0.04166667          6/1728
   8:     0.12500000    0.12500000    0.04166667          6/1728
   9:     0.12500000    0.12500000    0.12500000          2/1728
          ...
 181:     0.45833333    0.45833333    0.45833333          2/1728

Wave functions: Plane wave expansion
  Cutoff energy: 450.000 eV
  Number of coefficients (min, max): 176, 200
  Pulay-stress correction: 0.000000 eV/Ang^3 (de/decut=0.000000)
  Using FFTW library
  ScaLapack parameters: grid=1x1, blocksize=None
  Wavefunction extrapolation:
    Improved wavefunction reuse through dual PAW basis 

Occupation numbers: Fermi-Dirac:
  width: 0.1000  # eV
 

Eigensolver
   Davidson(niter=2) 

Densities:
  Coarse grid: 12*12*12 grid
  Fine grid: 24*24*24 grid
  Total Charge: 0.000000 

Density mixing:
  Method: separate
  Backend: pulay
  Linear mixing parameter: 0.05
  old densities: 5
  Damping of long wavelength oscillations: 50 

Hamiltonian:
  XC and Coulomb potentials evaluated on a 24*24*24 grid
  Using the PBE Exchange-Correlation functional
  External potential:
    NoExternalPotential
 

XC parameters: PBE with 2 nearest neighbor stencil

Memory estimate:
  Process memory now: 323.79 MiB
  Calculator: 2.45 MiB
    Density: 0.67 MiB
      Arrays: 0.34 MiB
      Localized functions: 0.20 MiB
      Mixer: 0.13 MiB
    Hamiltonian: 0.23 MiB
      Arrays: 0.22 MiB
      XC: 0.00 MiB
      Poisson: 0.00 MiB
      vbar: 0.00 MiB
    Wavefunctions: 1.55 MiB
      Arrays psit_nG: 0.81 MiB
      Eigensolver: 0.07 MiB
      Projections: 0.07 MiB
      Projectors: 0.46 MiB
      PW-descriptor: 0.13 MiB

Total number of cores used: 8
Parallelization over k-points: 8

Number of atoms: 1
Number of atomic orbitals: 12
Number of bands in calculation: 12
Number of valence electrons: 15
Bands to converge: occupied

... initialized

Initializing position-dependent things.

Density initialized from atomic densities
Creating initial wave functions:
  12 bands from LCAO basis set

                
                
                
       Rh       
                
                
                
                

Positions:
   0 Rh     0.000000    0.000000    0.000000    ( 0.0000,  0.0000,  0.0000)

Unit cell:
           periodic     x           y           z      points  spacing
  1. axis:    yes    0.000000    1.641026    1.641026    12     0.1579
  2. axis:    yes    1.641026    0.000000    1.641026    12     0.1579
  3. axis:    yes    1.641026    1.641026    0.000000    12     0.1579

  Lengths:   2.320761   2.320761   2.320761
  Angles:   60.000000  60.000000  60.000000

Effective grid spacing dv^(1/3) = 0.1723

     iter     time        total  log10-change:
                         energy  eigst   dens
iter:   1 18:36:26    -3.800220
iter:   2 18:36:26    -3.723985  -1.69  -1.46
iter:   3 18:36:27    -3.334788  -1.27  -1.48
iter:   4 18:36:27    -3.288631  -2.83  -1.85
iter:   5 18:36:27    -3.307691  -2.44  -2.11
iter:   6 18:36:27    -3.269410  -1.75  -2.20
iter:   7 18:36:28    -3.269398  -3.10  -2.98
iter:   8 18:36:28    -3.271669c -3.17  -2.85
iter:   9 18:36:28    -3.271490c -4.20  -3.13
iter:  10 18:36:28    -3.271545c -4.96  -3.40
iter:  11 18:36:29    -3.271564c -5.75  -3.55
iter:  12 18:36:29    -3.271581c -5.32  -3.72
iter:  13 18:36:29    -3.271580c -6.57  -4.76c
iter:  14 18:36:29    -3.271581c -6.72  -4.95c
iter:  15 18:36:29    -3.271581c -7.58c -4.37c

Converged after 15 iterations.

Dipole moment: (0.000000, 0.000000, 0.000000) |e|*Ang

Energy contributions relative to reference atoms: (reference = -130134.647000)

Kinetic:        +84.503680
Potential:      -71.488039
External:        +0.000000
XC:             -15.763977
Entropy (-ST):   -0.020846
Local:           -0.512822
--------------------------
Free energy:     -3.282004
Extrapolated:    -3.271581

Showing only first 2 kpts
 Kpt  Band  Eigenvalues  Occupancy
  0     5     16.18686    2.00000
  0     6     16.20007    2.00000
  0     7     19.73033    2.00000
  0     8     20.12685    2.00000

  1     5     16.01993    2.00000
  1     6     16.01993    2.00000
  1     7     20.02968    2.00000
  1     8     20.02968    2.00000


Fermi level: 22.02236

No gap
System changes: cell 

Initialize ...

species:
  Rh:
    name: Rhodium
    id: 4e1d209aee696a641de1ffa1459b299f
    Z: 45.0
    valence: 15
    core: 30
    charge: 0.0
    file: /apps/Common/software/GPAW-setups/0.9.20000/Rh.PBE.gz
    compensation charges: {type: gauss,
                           rc: 0.38,
                           lmax: 2}
    cutoffs: {filter: 2.48,
              core: 2.35}
    valence states:
      #              energy  rcut
      - 5s(1.00)    -4.297   1.270
      - 4p(6.00)   -50.429   1.381
      - 5p(0.00)    -0.852   1.381
      - 4d(8.00)    -5.942   1.244
      -  s          22.915   1.270
      -  d          21.270   1.244
  
    # Using partial waves for Rh as LCAO basis

Reference energy: -130134.647000  # eV

Spin-paired calculation

Convergence criteria:
 Maximum [total energy] change in last 3 cyles: 0.0005 eV / electron
 Maximum integral of absolute [dens]ity change: 0.0001 electrons / valence electron
 Maximum integral of absolute [eigenst]ate change: 4e-08 eV^2 / valence electron
 Maximum number of scf [iter]ations: 333
 (Square brackets indicate name in SCF output, whereas a 'c' in
 the SCF output indicates the quantity has converged.)

Symmetries present (total): 48

  ( 1  0  0)  ( 1  0  0)  ( 1  0  0)  ( 1  0  0)  ( 1  0 -1)  ( 1  0 -1)
  ( 1  0 -1)  ( 1 -1  0)  ( 0  1  0)  ( 0  0  1)  ( 1  0  0)  ( 1 -1  0)
  ( 1 -1  0)  ( 1  0 -1)  ( 0  0  1)  ( 0  1  0)  ( 1 -1  0)  ( 1  0  0)

  ( 1  0 -1)  ( 1  0 -1)  ( 1 -1  0)  ( 1 -1  0)  ( 1 -1  0)  ( 1 -1  0)
  ( 0  1 -1)  ( 0  0 -1)  ( 1  0  0)  ( 1  0 -1)  ( 0 -1  1)  ( 0 -1  0)
  ( 0  0 -1)  ( 0  1 -1)  ( 1  0 -1)  ( 1  0  0)  ( 0 -1  0)  ( 0 -1  1)

  ( 0  1  0)  ( 0  1  0)  ( 0  1  0)  ( 0  1  0)  ( 0  1 -1)  ( 0  1 -1)
  ( 1  0  0)  ( 0  1 -1)  ( 0  0  1)  (-1  1  0)  ( 1  0 -1)  ( 0  1  0)
  ( 0  0  1)  (-1  1  0)  ( 1  0  0)  ( 0  1 -1)  ( 0  0 -1)  (-1  1  0)

  ( 0  1 -1)  ( 0  1 -1)  ( 0  0  1)  ( 0  0  1)  ( 0  0  1)  ( 0  0  1)
  ( 0  0 -1)  (-1  1  0)  ( 1  0  0)  ( 0  1  0)  ( 0 -1  1)  (-1  0  1)
  ( 1  0 -1)  ( 0  1  0)  ( 0  1  0)  ( 1  0  0)  (-1  0  1)  ( 0 -1  1)

  ( 0  0 -1)  ( 0  0 -1)  ( 0  0 -1)  ( 0  0 -1)  ( 0 -1  1)  ( 0 -1  1)
  ( 1  0 -1)  ( 0  1 -1)  ( 0 -1  0)  (-1  0  0)  ( 1 -1  0)  ( 0  0  1)
  ( 0  1 -1)  ( 1  0 -1)  (-1  0  0)  ( 0 -1  0)  ( 0 -1  0)  (-1  0  1)

  ( 0 -1  1)  ( 0 -1  1)  ( 0 -1  0)  ( 0 -1  0)  ( 0 -1  0)  ( 0 -1  0)
  ( 0 -1  0)  (-1  0  1)  ( 1 -1  0)  ( 0  0 -1)  ( 0 -1  1)  (-1  0  0)
  ( 1 -1  0)  ( 0  0  1)  ( 0 -1  1)  (-1  0  0)  ( 1 -1  0)  ( 0  0 -1)

  (-1  1  0)  (-1  1  0)  (-1  1  0)  (-1  1  0)  (-1  0  1)  (-1  0  1)
  ( 0  1  0)  ( 0  1 -1)  (-1  0  1)  (-1  0  0)  ( 0  0  1)  ( 0 -1  1)
  ( 0  1 -1)  ( 0  1  0)  (-1  0  0)  (-1  0  1)  ( 0 -1  1)  ( 0  0  1)

  (-1  0  1)  (-1  0  1)  (-1  0  0)  (-1  0  0)  (-1  0  0)  (-1  0  0)
  (-1  1  0)  (-1  0  0)  ( 0  0 -1)  ( 0 -1  0)  (-1  1  0)  (-1  0  1)
  (-1  0  0)  (-1  1  0)  ( 0 -1  0)  ( 0  0 -1)  (-1  0  1)  (-1  1  0)
Note: your k-points are not as symmetric as your crystal!

1728 k-points: 12 x 12 x 12 Monkhorst-Pack grid
182 k-points in the irreducible part of the Brillouin zone
       k-points in crystal coordinates                weights
   0:     0.04166667    0.04166667   -0.04166667          6/1728
   1:     0.04166667    0.04166667    0.04166667          2/1728
   2:     0.12500000   -0.04166667   -0.04166667          6/1728
   3:     0.12500000    0.04166667   -0.12500000         12/1728
   4:     0.12500000    0.04166667   -0.04166667         12/1728
   5:     0.12500000    0.04166667    0.04166667          6/1728
   6:     0.12500000    0.12500000   -0.12500000          6/1728
   7:     0.12500000    0.12500000   -0.04166667          6/1728
   8:     0.12500000    0.12500000    0.04166667          6/1728
   9:     0.12500000    0.12500000    0.12500000          2/1728
          ...
 181:     0.45833333    0.45833333    0.45833333          2/1728

Wave functions: Plane wave expansion
  Cutoff energy: 450.000 eV
  Number of coefficients (min, max): 179, 204
  Pulay-stress correction: 0.000000 eV/Ang^3 (de/decut=0.000000)
  Using FFTW library
  ScaLapack parameters: grid=1x1, blocksize=None
  Wavefunction extrapolation:
    Improved wavefunction reuse through dual PAW basis 

Occupation numbers: Fermi-Dirac:
  width: 0.1000  # eV
 

Eigensolver
   Davidson(niter=2) 

Densities:
  Coarse grid: 12*12*12 grid
  Fine grid: 24*24*24 grid
  Total Charge: 0.000000 

Density mixing:
  Method: separate
  Backend: pulay
  Linear mixing parameter: 0.05
  old densities: 5
  Damping of long wavelength oscillations: 50 

Hamiltonian:
  XC and Coulomb potentials evaluated on a 24*24*24 grid
  Using the PBE Exchange-Correlation functional
  External potential:
    NoExternalPotential
 

XC parameters: PBE with 2 nearest neighbor stencil

Memory estimate:
  Process memory now: 323.79 MiB
  Calculator: 2.50 MiB
    Density: 0.69 MiB
      Arrays: 0.34 MiB
      Localized functions: 0.21 MiB
      Mixer: 0.13 MiB
    Hamiltonian: 0.23 MiB
      Arrays: 0.22 MiB
      XC: 0.00 MiB
      Poisson: 0.00 MiB
      vbar: 0.00 MiB
    Wavefunctions: 1.59 MiB
      Arrays psit_nG: 0.82 MiB
      Eigensolver: 0.08 MiB
      Projections: 0.07 MiB
      Projectors: 0.48 MiB
      PW-descriptor: 0.13 MiB

Total number of cores used: 8
Parallelization over k-points: 8

Number of atoms: 1
Number of atomic orbitals: 12
Number of bands in calculation: 12
Number of valence electrons: 15
Bands to converge: occupied

... initialized

Initializing position-dependent things.

Density initialized from atomic densities
Creating initial wave functions:
  12 bands from LCAO basis set

                
                
                
       Rh       
                
                
                
                

Positions:
   0 Rh     0.000000    0.000000    0.000000    ( 0.0000,  0.0000,  0.0000)

Unit cell:
           periodic     x           y           z      points  spacing
  1. axis:    yes    0.000000    1.661538    1.661538    12     0.1599
  2. axis:    yes    1.661538    0.000000    1.661538    12     0.1599
  3. axis:    yes    1.661538    1.661538    0.000000    12     0.1599

  Lengths:   2.349770   2.349770   2.349770
  Angles:   60.000000  60.000000  60.000000

Effective grid spacing dv^(1/3) = 0.1745

     iter     time        total  log10-change:
                         energy  eigst   dens
iter:   1 18:36:31    -4.537868
iter:   2 18:36:32    -4.460216  -1.69  -1.44
iter:   3 18:36:32    -4.083670  -1.30  -1.47
iter:   4 18:36:32    -4.028320  -2.83  -1.83
iter:   5 18:36:32    -4.049079  -2.48  -2.14
iter:   6 18:36:32    -4.006380  -1.77  -2.19
iter:   7 18:36:33    -4.006567  -3.05  -3.07
iter:   8 18:36:33    -4.008208c -3.31  -2.90
iter:   9 18:36:33    -4.008160c -4.11  -3.07
iter:  10 18:36:33    -4.008207c -5.00  -3.33
iter:  11 18:36:34    -4.008245c -5.47  -3.42
iter:  12 18:36:34    -4.008265c -5.20  -3.63
iter:  13 18:36:34    -4.008264c -6.50  -4.65c
iter:  14 18:36:34    -4.008265c -6.47  -4.92c
iter:  15 18:36:34    -4.008264c -7.37  -4.16c
iter:  16 18:36:35    -4.008264c -7.42c -4.64c

Converged after 16 iterations.

Dipole moment: (-0.000000, 0.000000, -0.000000) |e|*Ang

Energy contributions relative to reference atoms: (reference = -130134.647000)

Kinetic:        +72.883711
Potential:      -61.977669
External:        +0.000000
XC:             -14.480548
Entropy (-ST):   -0.022136
Local:           -0.422690
--------------------------
Free energy:     -4.019332
Extrapolated:    -4.008264

Showing only first 2 kpts
 Kpt  Band  Eigenvalues  Occupancy
  0     5     15.47574    2.00000
  0     6     15.48821    2.00000
  0     7     18.83146    2.00000
  0     8     19.20211    2.00000

  1     5     15.31813    2.00000
  1     6     15.31813    2.00000
  1     7     19.11009    2.00000
  1     8     19.11009    2.00000


Fermi level: 20.98565

No gap
System changes: cell 

Initialize ...

species:
  Rh:
    name: Rhodium
    id: 4e1d209aee696a641de1ffa1459b299f
    Z: 45.0
    valence: 15
    core: 30
    charge: 0.0
    file: /apps/Common/software/GPAW-setups/0.9.20000/Rh.PBE.gz
    compensation charges: {type: gauss,
                           rc: 0.38,
                           lmax: 2}
    cutoffs: {filter: 2.48,
              core: 2.35}
    valence states:
      #              energy  rcut
      - 5s(1.00)    -4.297   1.270
      - 4p(6.00)   -50.429   1.381
      - 5p(0.00)    -0.852   1.381
      - 4d(8.00)    -5.942   1.244
      -  s          22.915   1.270
      -  d          21.270   1.244
  
    # Using partial waves for Rh as LCAO basis

Reference energy: -130134.647000  # eV

Spin-paired calculation

Convergence criteria:
 Maximum [total energy] change in last 3 cyles: 0.0005 eV / electron
 Maximum integral of absolute [dens]ity change: 0.0001 electrons / valence electron
 Maximum integral of absolute [eigenst]ate change: 4e-08 eV^2 / valence electron
 Maximum number of scf [iter]ations: 333
 (Square brackets indicate name in SCF output, whereas a 'c' in
 the SCF output indicates the quantity has converged.)

Symmetries present (total): 48

  ( 1  0  0)  ( 1  0  0)  ( 1  0  0)  ( 1  0  0)  ( 1  0 -1)  ( 1  0 -1)
  ( 1  0 -1)  ( 1 -1  0)  ( 0  1  0)  ( 0  0  1)  ( 1  0  0)  ( 1 -1  0)
  ( 1 -1  0)  ( 1  0 -1)  ( 0  0  1)  ( 0  1  0)  ( 1 -1  0)  ( 1  0  0)

  ( 1  0 -1)  ( 1  0 -1)  ( 1 -1  0)  ( 1 -1  0)  ( 1 -1  0)  ( 1 -1  0)
  ( 0  1 -1)  ( 0  0 -1)  ( 1  0  0)  ( 1  0 -1)  ( 0 -1  1)  ( 0 -1  0)
  ( 0  0 -1)  ( 0  1 -1)  ( 1  0 -1)  ( 1  0  0)  ( 0 -1  0)  ( 0 -1  1)

  ( 0  1  0)  ( 0  1  0)  ( 0  1  0)  ( 0  1  0)  ( 0  1 -1)  ( 0  1 -1)
  ( 1  0  0)  ( 0  1 -1)  ( 0  0  1)  (-1  1  0)  ( 1  0 -1)  ( 0  1  0)
  ( 0  0  1)  (-1  1  0)  ( 1  0  0)  ( 0  1 -1)  ( 0  0 -1)  (-1  1  0)

  ( 0  1 -1)  ( 0  1 -1)  ( 0  0  1)  ( 0  0  1)  ( 0  0  1)  ( 0  0  1)
  ( 0  0 -1)  (-1  1  0)  ( 1  0  0)  ( 0  1  0)  ( 0 -1  1)  (-1  0  1)
  ( 1  0 -1)  ( 0  1  0)  ( 0  1  0)  ( 1  0  0)  (-1  0  1)  ( 0 -1  1)

  ( 0  0 -1)  ( 0  0 -1)  ( 0  0 -1)  ( 0  0 -1)  ( 0 -1  1)  ( 0 -1  1)
  ( 1  0 -1)  ( 0  1 -1)  ( 0 -1  0)  (-1  0  0)  ( 1 -1  0)  ( 0  0  1)
  ( 0  1 -1)  ( 1  0 -1)  (-1  0  0)  ( 0 -1  0)  ( 0 -1  0)  (-1  0  1)

  ( 0 -1  1)  ( 0 -1  1)  ( 0 -1  0)  ( 0 -1  0)  ( 0 -1  0)  ( 0 -1  0)
  ( 0 -1  0)  (-1  0  1)  ( 1 -1  0)  ( 0  0 -1)  ( 0 -1  1)  (-1  0  0)
  ( 1 -1  0)  ( 0  0  1)  ( 0 -1  1)  (-1  0  0)  ( 1 -1  0)  ( 0  0 -1)

  (-1  1  0)  (-1  1  0)  (-1  1  0)  (-1  1  0)  (-1  0  1)  (-1  0  1)
  ( 0  1  0)  ( 0  1 -1)  (-1  0  1)  (-1  0  0)  ( 0  0  1)  ( 0 -1  1)
  ( 0  1 -1)  ( 0  1  0)  (-1  0  0)  (-1  0  1)  ( 0 -1  1)  ( 0  0  1)

  (-1  0  1)  (-1  0  1)  (-1  0  0)  (-1  0  0)  (-1  0  0)  (-1  0  0)
  (-1  1  0)  (-1  0  0)  ( 0  0 -1)  ( 0 -1  0)  (-1  1  0)  (-1  0  1)
  (-1  0  0)  (-1  1  0)  ( 0 -1  0)  ( 0  0 -1)  (-1  0  1)  (-1  1  0)
Note: your k-points are not as symmetric as your crystal!

1728 k-points: 12 x 12 x 12 Monkhorst-Pack grid
182 k-points in the irreducible part of the Brillouin zone
       k-points in crystal coordinates                weights
   0:     0.04166667    0.04166667   -0.04166667          6/1728
   1:     0.04166667    0.04166667    0.04166667          2/1728
   2:     0.12500000   -0.04166667   -0.04166667          6/1728
   3:     0.12500000    0.04166667   -0.12500000         12/1728
   4:     0.12500000    0.04166667   -0.04166667         12/1728
   5:     0.12500000    0.04166667    0.04166667          6/1728
   6:     0.12500000    0.12500000   -0.12500000          6/1728
   7:     0.12500000    0.12500000   -0.04166667          6/1728
   8:     0.12500000    0.12500000    0.04166667          6/1728
   9:     0.12500000    0.12500000    0.12500000          2/1728
          ...
 181:     0.45833333    0.45833333    0.45833333          2/1728

Wave functions: Plane wave expansion
  Cutoff energy: 450.000 eV
  Number of coefficients (min, max): 181, 218
  Pulay-stress correction: 0.000000 eV/Ang^3 (de/decut=0.000000)
  Using FFTW library
  ScaLapack parameters: grid=1x1, blocksize=None
  Wavefunction extrapolation:
    Improved wavefunction reuse through dual PAW basis 

Occupation numbers: Fermi-Dirac:
  width: 0.1000  # eV
 

Eigensolver
   Davidson(niter=2) 

Densities:
  Coarse grid: 12*12*12 grid
  Fine grid: 24*24*24 grid
  Total Charge: 0.000000 

Density mixing:
  Method: separate
  Backend: pulay
  Linear mixing parameter: 0.05
  old densities: 5
  Damping of long wavelength oscillations: 50 

Hamiltonian:
  XC and Coulomb potentials evaluated on a 24*24*24 grid
  Using the PBE Exchange-Correlation functional
  External potential:
    NoExternalPotential
 

XC parameters: PBE with 2 nearest neighbor stencil

Memory estimate:
  Process memory now: 323.79 MiB
  Calculator: 2.59 MiB
    Density: 0.69 MiB
      Arrays: 0.34 MiB
      Localized functions: 0.22 MiB
      Mixer: 0.13 MiB
    Hamiltonian: 0.23 MiB
      Arrays: 0.22 MiB
      XC: 0.00 MiB
      Poisson: 0.00 MiB
      vbar: 0.00 MiB
    Wavefunctions: 1.67 MiB
      Arrays psit_nG: 0.88 MiB
      Eigensolver: 0.08 MiB
      Projections: 0.07 MiB
      Projectors: 0.50 MiB
      PW-descriptor: 0.14 MiB

Total number of cores used: 8
Parallelization over k-points: 8

Number of atoms: 1
Number of atomic orbitals: 12
Number of bands in calculation: 12
Number of valence electrons: 15
Bands to converge: occupied

... initialized

Initializing position-dependent things.

Density initialized from atomic densities
Creating initial wave functions:
  12 bands from LCAO basis set

                
                
                
       Rh       
                
                
                
                

Positions:
   0 Rh     0.000000    0.000000    0.000000    ( 0.0000,  0.0000,  0.0000)

Unit cell:
           periodic     x           y           z      points  spacing
  1. axis:    yes    0.000000    1.682051    1.682051    12     0.1619
  2. axis:    yes    1.682051    0.000000    1.682051    12     0.1619
  3. axis:    yes    1.682051    1.682051    0.000000    12     0.1619

  Lengths:   2.378780   2.378780   2.378780
  Angles:   60.000000  60.000000  60.000000

Effective grid spacing dv^(1/3) = 0.1766

     iter     time        total  log10-change:
                         energy  eigst   dens
iter:   1 18:36:36    -5.178521
iter:   2 18:36:37    -5.098408  -1.71  -1.43
iter:   3 18:36:37    -4.729327  -1.33  -1.46
iter:   4 18:36:37    -4.666903  -2.82  -1.83
iter:   5 18:36:37    -4.691796  -2.52  -2.16
iter:   6 18:36:38    -4.642930  -1.80  -2.16
iter:   7 18:36:38    -4.643360  -2.95  -3.15
iter:   8 18:36:38    -4.644502c -3.43  -2.98
iter:   9 18:36:38    -4.644434c -4.13  -3.00
iter:  10 18:36:38    -4.644489c -4.99  -3.19
iter:  11 18:36:39    -4.644539c -5.42  -3.26
iter:  12 18:36:39    -4.644581c -4.97  -3.42
iter:  13 18:36:39    -4.644580c -6.33  -4.67c
iter:  14 18:36:39    -4.644580c -7.02  -4.82c
iter:  15 18:36:40    -4.644580c -6.80  -4.81c
iter:  16 18:36:40    -4.644579c -7.65c -4.72c

Converged after 16 iterations.

Dipole moment: (-0.000000, -0.000000, -0.000000) |e|*Ang

Energy contributions relative to reference atoms: (reference = -130134.647000)

Kinetic:        +62.248418
Potential:      -53.250838
External:        +0.000000
XC:             -13.284986
Entropy (-ST):   -0.023506
Local:           -0.345420
--------------------------
Free energy:     -4.656332
Extrapolated:    -4.644579

Showing only first 2 kpts
 Kpt  Band  Eigenvalues  Occupancy
  0     5     14.78990    2.00000
  0     6     14.80165    2.00000
  0     7     17.96866    2.00000
  0     8     18.31550    2.00000

  1     5     14.64139    2.00000
  1     6     14.64139    2.00000
  1     7     18.22875    2.00000
  1     8     18.22875    2.00000


Fermi level: 19.99614

No gap
System changes: cell 

Initialize ...

species:
  Rh:
    name: Rhodium
    id: 4e1d209aee696a641de1ffa1459b299f
    Z: 45.0
    valence: 15
    core: 30
    charge: 0.0
    file: /apps/Common/software/GPAW-setups/0.9.20000/Rh.PBE.gz
    compensation charges: {type: gauss,
                           rc: 0.38,
                           lmax: 2}
    cutoffs: {filter: 2.48,
              core: 2.35}
    valence states:
      #              energy  rcut
      - 5s(1.00)    -4.297   1.270
      - 4p(6.00)   -50.429   1.381
      - 5p(0.00)    -0.852   1.381
      - 4d(8.00)    -5.942   1.244
      -  s          22.915   1.270
      -  d          21.270   1.244
  
    # Using partial waves for Rh as LCAO basis

Reference energy: -130134.647000  # eV

Spin-paired calculation

Convergence criteria:
 Maximum [total energy] change in last 3 cyles: 0.0005 eV / electron
 Maximum integral of absolute [dens]ity change: 0.0001 electrons / valence electron
 Maximum integral of absolute [eigenst]ate change: 4e-08 eV^2 / valence electron
 Maximum number of scf [iter]ations: 333
 (Square brackets indicate name in SCF output, whereas a 'c' in
 the SCF output indicates the quantity has converged.)

Symmetries present (total): 48

  ( 1  0  0)  ( 1  0  0)  ( 1  0  0)  ( 1  0  0)  ( 1  0 -1)  ( 1  0 -1)
  ( 1  0 -1)  ( 1 -1  0)  ( 0  1  0)  ( 0  0  1)  ( 1  0  0)  ( 1 -1  0)
  ( 1 -1  0)  ( 1  0 -1)  ( 0  0  1)  ( 0  1  0)  ( 1 -1  0)  ( 1  0  0)

  ( 1  0 -1)  ( 1  0 -1)  ( 1 -1  0)  ( 1 -1  0)  ( 1 -1  0)  ( 1 -1  0)
  ( 0  1 -1)  ( 0  0 -1)  ( 1  0  0)  ( 1  0 -1)  ( 0 -1  1)  ( 0 -1  0)
  ( 0  0 -1)  ( 0  1 -1)  ( 1  0 -1)  ( 1  0  0)  ( 0 -1  0)  ( 0 -1  1)

  ( 0  1  0)  ( 0  1  0)  ( 0  1  0)  ( 0  1  0)  ( 0  1 -1)  ( 0  1 -1)
  ( 1  0  0)  ( 0  1 -1)  ( 0  0  1)  (-1  1  0)  ( 1  0 -1)  ( 0  1  0)
  ( 0  0  1)  (-1  1  0)  ( 1  0  0)  ( 0  1 -1)  ( 0  0 -1)  (-1  1  0)

  ( 0  1 -1)  ( 0  1 -1)  ( 0  0  1)  ( 0  0  1)  ( 0  0  1)  ( 0  0  1)
  ( 0  0 -1)  (-1  1  0)  ( 1  0  0)  ( 0  1  0)  ( 0 -1  1)  (-1  0  1)
  ( 1  0 -1)  ( 0  1  0)  ( 0  1  0)  ( 1  0  0)  (-1  0  1)  ( 0 -1  1)

  ( 0  0 -1)  ( 0  0 -1)  ( 0  0 -1)  ( 0  0 -1)  ( 0 -1  1)  ( 0 -1  1)
  ( 1  0 -1)  ( 0  1 -1)  ( 0 -1  0)  (-1  0  0)  ( 1 -1  0)  ( 0  0  1)
  ( 0  1 -1)  ( 1  0 -1)  (-1  0  0)  ( 0 -1  0)  ( 0 -1  0)  (-1  0  1)

  ( 0 -1  1)  ( 0 -1  1)  ( 0 -1  0)  ( 0 -1  0)  ( 0 -1  0)  ( 0 -1  0)
  ( 0 -1  0)  (-1  0  1)  ( 1 -1  0)  ( 0  0 -1)  ( 0 -1  1)  (-1  0  0)
  ( 1 -1  0)  ( 0  0  1)  ( 0 -1  1)  (-1  0  0)  ( 1 -1  0)  ( 0  0 -1)

  (-1  1  0)  (-1  1  0)  (-1  1  0)  (-1  1  0)  (-1  0  1)  (-1  0  1)
  ( 0  1  0)  ( 0  1 -1)  (-1  0  1)  (-1  0  0)  ( 0  0  1)  ( 0 -1  1)
  ( 0  1 -1)  ( 0  1  0)  (-1  0  0)  (-1  0  1)  ( 0 -1  1)  ( 0  0  1)

  (-1  0  1)  (-1  0  1)  (-1  0  0)  (-1  0  0)  (-1  0  0)  (-1  0  0)
  (-1  1  0)  (-1  0  0)  ( 0  0 -1)  ( 0 -1  0)  (-1  1  0)  (-1  0  1)
  (-1  0  0)  (-1  1  0)  ( 0 -1  0)  ( 0  0 -1)  (-1  0  1)  (-1  1  0)
Note: your k-points are not as symmetric as your crystal!

1728 k-points: 12 x 12 x 12 Monkhorst-Pack grid
182 k-points in the irreducible part of the Brillouin zone
       k-points in crystal coordinates                weights
   0:     0.04166667    0.04166667   -0.04166667          6/1728
   1:     0.04166667    0.04166667    0.04166667          2/1728
   2:     0.12500000   -0.04166667   -0.04166667          6/1728
   3:     0.12500000    0.04166667   -0.12500000         12/1728
   4:     0.12500000    0.04166667   -0.04166667         12/1728
   5:     0.12500000    0.04166667    0.04166667          6/1728
   6:     0.12500000    0.12500000   -0.12500000          6/1728
   7:     0.12500000    0.12500000   -0.04166667          6/1728
   8:     0.12500000    0.12500000    0.04166667          6/1728
   9:     0.12500000    0.12500000    0.12500000          2/1728
          ...
 181:     0.45833333    0.45833333    0.45833333          2/1728

Wave functions: Plane wave expansion
  Cutoff energy: 450.000 eV
  Number of coefficients (min, max): 193, 221
  Pulay-stress correction: 0.000000 eV/Ang^3 (de/decut=0.000000)
  Using FFTW library
  ScaLapack parameters: grid=1x1, blocksize=None
  Wavefunction extrapolation:
    Improved wavefunction reuse through dual PAW basis 

Occupation numbers: Fermi-Dirac:
  width: 0.1000  # eV
 

Eigensolver
   Davidson(niter=2) 

Densities:
  Coarse grid: 12*12*12 grid
  Fine grid: 24*24*24 grid
  Total Charge: 0.000000 

Density mixing:
  Method: separate
  Backend: pulay
  Linear mixing parameter: 0.05
  old densities: 5
  Damping of long wavelength oscillations: 50 

Hamiltonian:
  XC and Coulomb potentials evaluated on a 24*24*24 grid
  Using the PBE Exchange-Correlation functional
  External potential:
    NoExternalPotential
 

XC parameters: PBE with 2 nearest neighbor stencil

Memory estimate:
  Process memory now: 323.79 MiB
  Calculator: 2.64 MiB
    Density: 0.70 MiB
      Arrays: 0.34 MiB
      Localized functions: 0.23 MiB
      Mixer: 0.13 MiB
    Hamiltonian: 0.23 MiB
      Arrays: 0.22 MiB
      XC: 0.00 MiB
      Poisson: 0.00 MiB
      vbar: 0.00 MiB
    Wavefunctions: 1.71 MiB
      Arrays psit_nG: 0.89 MiB
      Eigensolver: 0.08 MiB
      Projections: 0.07 MiB
      Projectors: 0.53 MiB
      PW-descriptor: 0.14 MiB

Total number of cores used: 8
Parallelization over k-points: 8

Number of atoms: 1
Number of atomic orbitals: 12
Number of bands in calculation: 12
Number of valence electrons: 15
Bands to converge: occupied

... initialized

Initializing position-dependent things.

Density initialized from atomic densities
Creating initial wave functions:
  12 bands from LCAO basis set

                
                
                
       Rh       
                
                
                
                

Positions:
   0 Rh     0.000000    0.000000    0.000000    ( 0.0000,  0.0000,  0.0000)

Unit cell:
           periodic     x           y           z      points  spacing
  1. axis:    yes    0.000000    1.702564    1.702564    12     0.1638
  2. axis:    yes    1.702564    0.000000    1.702564    12     0.1638
  3. axis:    yes    1.702564    1.702564    0.000000    12     0.1638

  Lengths:   2.407789   2.407789   2.407789
  Angles:   60.000000  60.000000  60.000000

Effective grid spacing dv^(1/3) = 0.1788

     iter     time        total  log10-change:
                         energy  eigst   dens
iter:   1 18:36:41    -5.730680
iter:   2 18:36:42    -5.647334  -1.73  -1.42
iter:   3 18:36:42    -5.281384  -1.34  -1.45
iter:   4 18:36:42    -5.214389  -2.82  -1.82
iter:   5 18:36:42    -5.245643  -2.68  -2.16
iter:   6 18:36:43    -5.188491  -1.80  -2.12
iter:   7 18:36:43    -5.189095  -2.86  -3.23
iter:   8 18:36:43    -5.189927c -3.45  -2.97
iter:   9 18:36:43    -5.189920c -4.12  -3.00
iter:  10 18:36:43    -5.189985c -4.80  -3.11
iter:  11 18:36:44    -5.190026c -5.40  -3.18
iter:  12 18:36:44    -5.190095c -4.71  -3.29
iter:  13 18:36:44    -5.190094c -6.12  -4.66c
iter:  14 18:36:44    -5.190095c -7.08  -4.76c
iter:  15 18:36:45    -5.190093c -6.76  -4.85c
iter:  16 18:36:45    -5.190094c -7.22  -4.70c
iter:  17 18:36:45    -5.190094c -7.73c -4.53c

Converged after 17 iterations.

Dipole moment: (0.000000, -0.000000, -0.000000) |e|*Ang

Energy contributions relative to reference atoms: (reference = -130134.647000)

Kinetic:        +52.603229
Potential:      -45.320760
External:        +0.000000
XC:             -12.175371
Entropy (-ST):   -0.024955
Local:           -0.284713
--------------------------
Free energy:     -5.202571
Extrapolated:    -5.190094

Showing only first 2 kpts
 Kpt  Band  Eigenvalues  Occupancy
  0     5     14.12902    2.00000
  0     6     14.14010    2.00000
  0     7     17.14080    2.00000
  0     8     17.46587    2.00000

  1     5     13.98893    2.00000
  1     6     13.98893    2.00000
  1     7     17.38397    2.00000
  1     8     17.38397    2.00000


Fermi level: 19.05199

No gap
System changes: cell 

Initialize ...

species:
  Rh:
    name: Rhodium
    id: 4e1d209aee696a641de1ffa1459b299f
    Z: 45.0
    valence: 15
    core: 30
    charge: 0.0
    file: /apps/Common/software/GPAW-setups/0.9.20000/Rh.PBE.gz
    compensation charges: {type: gauss,
                           rc: 0.38,
                           lmax: 2}
    cutoffs: {filter: 2.48,
              core: 2.35}
    valence states:
      #              energy  rcut
      - 5s(1.00)    -4.297   1.270
      - 4p(6.00)   -50.429   1.381
      - 5p(0.00)    -0.852   1.381
      - 4d(8.00)    -5.942   1.244
      -  s          22.915   1.270
      -  d          21.270   1.244
  
    # Using partial waves for Rh as LCAO basis

Reference energy: -130134.647000  # eV

Spin-paired calculation

Convergence criteria:
 Maximum [total energy] change in last 3 cyles: 0.0005 eV / electron
 Maximum integral of absolute [dens]ity change: 0.0001 electrons / valence electron
 Maximum integral of absolute [eigenst]ate change: 4e-08 eV^2 / valence electron
 Maximum number of scf [iter]ations: 333
 (Square brackets indicate name in SCF output, whereas a 'c' in
 the SCF output indicates the quantity has converged.)

Symmetries present (total): 48

  ( 1  0  0)  ( 1  0  0)  ( 1  0  0)  ( 1  0  0)  ( 1  0 -1)  ( 1  0 -1)
  ( 1  0 -1)  ( 1 -1  0)  ( 0  1  0)  ( 0  0  1)  ( 1  0  0)  ( 1 -1  0)
  ( 1 -1  0)  ( 1  0 -1)  ( 0  0  1)  ( 0  1  0)  ( 1 -1  0)  ( 1  0  0)

  ( 1  0 -1)  ( 1  0 -1)  ( 1 -1  0)  ( 1 -1  0)  ( 1 -1  0)  ( 1 -1  0)
  ( 0  1 -1)  ( 0  0 -1)  ( 1  0  0)  ( 1  0 -1)  ( 0 -1  1)  ( 0 -1  0)
  ( 0  0 -1)  ( 0  1 -1)  ( 1  0 -1)  ( 1  0  0)  ( 0 -1  0)  ( 0 -1  1)

  ( 0  1  0)  ( 0  1  0)  ( 0  1  0)  ( 0  1  0)  ( 0  1 -1)  ( 0  1 -1)
  ( 1  0  0)  ( 0  1 -1)  ( 0  0  1)  (-1  1  0)  ( 1  0 -1)  ( 0  1  0)
  ( 0  0  1)  (-1  1  0)  ( 1  0  0)  ( 0  1 -1)  ( 0  0 -1)  (-1  1  0)

  ( 0  1 -1)  ( 0  1 -1)  ( 0  0  1)  ( 0  0  1)  ( 0  0  1)  ( 0  0  1)
  ( 0  0 -1)  (-1  1  0)  ( 1  0  0)  ( 0  1  0)  ( 0 -1  1)  (-1  0  1)
  ( 1  0 -1)  ( 0  1  0)  ( 0  1  0)  ( 1  0  0)  (-1  0  1)  ( 0 -1  1)

  ( 0  0 -1)  ( 0  0 -1)  ( 0  0 -1)  ( 0  0 -1)  ( 0 -1  1)  ( 0 -1  1)
  ( 1  0 -1)  ( 0  1 -1)  ( 0 -1  0)  (-1  0  0)  ( 1 -1  0)  ( 0  0  1)
  ( 0  1 -1)  ( 1  0 -1)  (-1  0  0)  ( 0 -1  0)  ( 0 -1  0)  (-1  0  1)

  ( 0 -1  1)  ( 0 -1  1)  ( 0 -1  0)  ( 0 -1  0)  ( 0 -1  0)  ( 0 -1  0)
  ( 0 -1  0)  (-1  0  1)  ( 1 -1  0)  ( 0  0 -1)  ( 0 -1  1)  (-1  0  0)
  ( 1 -1  0)  ( 0  0  1)  ( 0 -1  1)  (-1  0  0)  ( 1 -1  0)  ( 0  0 -1)

  (-1  1  0)  (-1  1  0)  (-1  1  0)  (-1  1  0)  (-1  0  1)  (-1  0  1)
  ( 0  1  0)  ( 0  1 -1)  (-1  0  1)  (-1  0  0)  ( 0  0  1)  ( 0 -1  1)
  ( 0  1 -1)  ( 0  1  0)  (-1  0  0)  (-1  0  1)  ( 0 -1  1)  ( 0  0  1)

  (-1  0  1)  (-1  0  1)  (-1  0  0)  (-1  0  0)  (-1  0  0)  (-1  0  0)
  (-1  1  0)  (-1  0  0)  ( 0  0 -1)  ( 0 -1  0)  (-1  1  0)  (-1  0  1)
  (-1  0  0)  (-1  1  0)  ( 0 -1  0)  ( 0  0 -1)  (-1  0  1)  (-1  1  0)
Note: your k-points are not as symmetric as your crystal!

1728 k-points: 12 x 12 x 12 Monkhorst-Pack grid
182 k-points in the irreducible part of the Brillouin zone
       k-points in crystal coordinates                weights
   0:     0.04166667    0.04166667   -0.04166667          6/1728
   1:     0.04166667    0.04166667    0.04166667          2/1728
   2:     0.12500000   -0.04166667   -0.04166667          6/1728
   3:     0.12500000    0.04166667   -0.12500000         12/1728
   4:     0.12500000    0.04166667   -0.04166667         12/1728
   5:     0.12500000    0.04166667    0.04166667          6/1728
   6:     0.12500000    0.12500000   -0.12500000          6/1728
   7:     0.12500000    0.12500000   -0.04166667          6/1728
   8:     0.12500000    0.12500000    0.04166667          6/1728
   9:     0.12500000    0.12500000    0.12500000          2/1728
          ...
 181:     0.45833333    0.45833333    0.45833333          2/1728

Wave functions: Plane wave expansion
  Cutoff energy: 450.000 eV
  Number of coefficients (min, max): 216, 229
  Pulay-stress correction: 0.000000 eV/Ang^3 (de/decut=0.000000)
  Using FFTW library
  ScaLapack parameters: grid=1x1, blocksize=None
  Wavefunction extrapolation:
    Improved wavefunction reuse through dual PAW basis 

Occupation numbers: Fermi-Dirac:
  width: 0.1000  # eV
 

Eigensolver
   Davidson(niter=2) 

Densities:
  Coarse grid: 12*12*12 grid
  Fine grid: 24*24*24 grid
  Total Charge: 0.000000 

Density mixing:
  Method: separate
  Backend: pulay
  Linear mixing parameter: 0.05
  old densities: 5
  Damping of long wavelength oscillations: 50 

Hamiltonian:
  XC and Coulomb potentials evaluated on a 24*24*24 grid
  Using the PBE Exchange-Correlation functional
  External potential:
    NoExternalPotential
 

XC parameters: PBE with 2 nearest neighbor stencil

Memory estimate:
  Process memory now: 323.79 MiB
  Calculator: 2.71 MiB
    Density: 0.71 MiB
      Arrays: 0.34 MiB
      Localized functions: 0.23 MiB
      Mixer: 0.13 MiB
    Hamiltonian: 0.23 MiB
      Arrays: 0.22 MiB
      XC: 0.00 MiB
      Poisson: 0.00 MiB
      vbar: 0.00 MiB
    Wavefunctions: 1.77 MiB
      Arrays psit_nG: 0.92 MiB
      Eigensolver: 0.08 MiB
      Projections: 0.07 MiB
      Projectors: 0.55 MiB
      PW-descriptor: 0.14 MiB

Total number of cores used: 8
Parallelization over k-points: 8

Number of atoms: 1
Number of atomic orbitals: 12
Number of bands in calculation: 12
Number of valence electrons: 15
Bands to converge: occupied

... initialized

Initializing position-dependent things.

Density initialized from atomic densities
Creating initial wave functions:
  12 bands from LCAO basis set

                
                
                
       Rh       
                
                
                
                

Positions:
   0 Rh     0.000000    0.000000    0.000000    ( 0.0000,  0.0000,  0.0000)

Unit cell:
           periodic     x           y           z      points  spacing
  1. axis:    yes    0.000000    1.723077    1.723077    12     0.1658
  2. axis:    yes    1.723077    0.000000    1.723077    12     0.1658
  3. axis:    yes    1.723077    1.723077    0.000000    12     0.1658

  Lengths:   2.436799   2.436799   2.436799
  Angles:   60.000000  60.000000  60.000000

Effective grid spacing dv^(1/3) = 0.1809

     iter     time        total  log10-change:
                         energy  eigst   dens
iter:   1 18:36:47    -6.202179
iter:   2 18:36:47    -6.115137  -1.75  -1.41
iter:   3 18:36:47    -5.749762  -1.33  -1.44
iter:   4 18:36:47    -5.679721  -2.82  -1.82
iter:   5 18:36:47    -5.716574  -2.73  -2.16
iter:   6 18:36:48    -5.652221  -1.86  -2.06
iter:   7 18:36:48    -5.652863  -2.84  -3.30
iter:   8 18:36:48    -5.653507c -3.47  -2.97
iter:   9 18:36:48    -5.653516c -4.14  -3.02
iter:  10 18:36:49    -5.653566c -4.72  -3.09
iter:  11 18:36:49    -5.653599c -5.38  -3.17
iter:  12 18:36:49    -5.653665c -4.72  -3.26
iter:  13 18:36:49    -5.653664c -6.05  -4.59c
iter:  14 18:36:49    -5.653664c -7.24  -4.76c
iter:  15 18:36:50    -5.653665c -8.57c -4.71c

Converged after 15 iterations.

Dipole moment: (-0.000000, -0.000000, -0.000000) |e|*Ang

Energy contributions relative to reference atoms: (reference = -130134.647000)

Kinetic:        +43.477271
Potential:      -37.773871
External:        +0.000000
XC:             -11.120846
Entropy (-ST):   -0.026497
Local:           -0.222970
--------------------------
Free energy:     -5.666913
Extrapolated:    -5.653665

Showing only first 2 kpts
 Kpt  Band  Eigenvalues  Occupancy
  0     5     13.49106    2.00000
  0     6     13.50129    2.00000
  0     7     16.34576    2.00000
  0     8     16.64962    2.00000

  1     5     13.35822    2.00000
  1     6     13.35822    2.00000
  1     7     16.57184    2.00000
  1     8     16.57184    2.00000


Fermi level: 18.14910

No gap
System changes: cell 

Initialize ...

species:
  Rh:
    name: Rhodium
    id: 4e1d209aee696a641de1ffa1459b299f
    Z: 45.0
    valence: 15
    core: 30
    charge: 0.0
    file: /apps/Common/software/GPAW-setups/0.9.20000/Rh.PBE.gz
    compensation charges: {type: gauss,
                           rc: 0.38,
                           lmax: 2}
    cutoffs: {filter: 2.48,
              core: 2.35}
    valence states:
      #              energy  rcut
      - 5s(1.00)    -4.297   1.270
      - 4p(6.00)   -50.429   1.381
      - 5p(0.00)    -0.852   1.381
      - 4d(8.00)    -5.942   1.244
      -  s          22.915   1.270
      -  d          21.270   1.244
  
    # Using partial waves for Rh as LCAO basis

Reference energy: -130134.647000  # eV

Spin-paired calculation

Convergence criteria:
 Maximum [total energy] change in last 3 cyles: 0.0005 eV / electron
 Maximum integral of absolute [dens]ity change: 0.0001 electrons / valence electron
 Maximum integral of absolute [eigenst]ate change: 4e-08 eV^2 / valence electron
 Maximum number of scf [iter]ations: 333
 (Square brackets indicate name in SCF output, whereas a 'c' in
 the SCF output indicates the quantity has converged.)

Symmetries present (total): 48

  ( 1  0  0)  ( 1  0  0)  ( 1  0  0)  ( 1  0  0)  ( 1  0 -1)  ( 1  0 -1)
  ( 1  0 -1)  ( 1 -1  0)  ( 0  1  0)  ( 0  0  1)  ( 1  0  0)  ( 1 -1  0)
  ( 1 -1  0)  ( 1  0 -1)  ( 0  0  1)  ( 0  1  0)  ( 1 -1  0)  ( 1  0  0)

  ( 1  0 -1)  ( 1  0 -1)  ( 1 -1  0)  ( 1 -1  0)  ( 1 -1  0)  ( 1 -1  0)
  ( 0  1 -1)  ( 0  0 -1)  ( 1  0  0)  ( 1  0 -1)  ( 0 -1  1)  ( 0 -1  0)
  ( 0  0 -1)  ( 0  1 -1)  ( 1  0 -1)  ( 1  0  0)  ( 0 -1  0)  ( 0 -1  1)

  ( 0  1  0)  ( 0  1  0)  ( 0  1  0)  ( 0  1  0)  ( 0  1 -1)  ( 0  1 -1)
  ( 1  0  0)  ( 0  1 -1)  ( 0  0  1)  (-1  1  0)  ( 1  0 -1)  ( 0  1  0)
  ( 0  0  1)  (-1  1  0)  ( 1  0  0)  ( 0  1 -1)  ( 0  0 -1)  (-1  1  0)

  ( 0  1 -1)  ( 0  1 -1)  ( 0  0  1)  ( 0  0  1)  ( 0  0  1)  ( 0  0  1)
  ( 0  0 -1)  (-1  1  0)  ( 1  0  0)  ( 0  1  0)  ( 0 -1  1)  (-1  0  1)
  ( 1  0 -1)  ( 0  1  0)  ( 0  1  0)  ( 1  0  0)  (-1  0  1)  ( 0 -1  1)

  ( 0  0 -1)  ( 0  0 -1)  ( 0  0 -1)  ( 0  0 -1)  ( 0 -1  1)  ( 0 -1  1)
  ( 1  0 -1)  ( 0  1 -1)  ( 0 -1  0)  (-1  0  0)  ( 1 -1  0)  ( 0  0  1)
  ( 0  1 -1)  ( 1  0 -1)  (-1  0  0)  ( 0 -1  0)  ( 0 -1  0)  (-1  0  1)

  ( 0 -1  1)  ( 0 -1  1)  ( 0 -1  0)  ( 0 -1  0)  ( 0 -1  0)  ( 0 -1  0)
  ( 0 -1  0)  (-1  0  1)  ( 1 -1  0)  ( 0  0 -1)  ( 0 -1  1)  (-1  0  0)
  ( 1 -1  0)  ( 0  0  1)  ( 0 -1  1)  (-1  0  0)  ( 1 -1  0)  ( 0  0 -1)

  (-1  1  0)  (-1  1  0)  (-1  1  0)  (-1  1  0)  (-1  0  1)  (-1  0  1)
  ( 0  1  0)  ( 0  1 -1)  (-1  0  1)  (-1  0  0)  ( 0  0  1)  ( 0 -1  1)
  ( 0  1 -1)  ( 0  1  0)  (-1  0  0)  (-1  0  1)  ( 0 -1  1)  ( 0  0  1)

  (-1  0  1)  (-1  0  1)  (-1  0  0)  (-1  0  0)  (-1  0  0)  (-1  0  0)
  (-1  1  0)  (-1  0  0)  ( 0  0 -1)  ( 0 -1  0)  (-1  1  0)  (-1  0  1)
  (-1  0  0)  (-1  1  0)  ( 0 -1  0)  ( 0  0 -1)  (-1  0  1)  (-1  1  0)
Note: your k-points are not as symmetric as your crystal!

1728 k-points: 12 x 12 x 12 Monkhorst-Pack grid
182 k-points in the irreducible part of the Brillouin zone
       k-points in crystal coordinates                weights
   0:     0.04166667    0.04166667   -0.04166667          6/1728
   1:     0.04166667    0.04166667    0.04166667          2/1728
   2:     0.12500000   -0.04166667   -0.04166667          6/1728
   3:     0.12500000    0.04166667   -0.12500000         12/1728
   4:     0.12500000    0.04166667   -0.04166667         12/1728
   5:     0.12500000    0.04166667    0.04166667          6/1728
   6:     0.12500000    0.12500000   -0.12500000          6/1728
   7:     0.12500000    0.12500000   -0.04166667          6/1728
   8:     0.12500000    0.12500000    0.04166667          6/1728
   9:     0.12500000    0.12500000    0.12500000          2/1728
          ...
 181:     0.45833333    0.45833333    0.45833333          2/1728

Wave functions: Plane wave expansion
  Cutoff energy: 450.000 eV
  Number of coefficients (min, max): 222, 250
  Pulay-stress correction: 0.000000 eV/Ang^3 (de/decut=0.000000)
  Using FFTW library
  ScaLapack parameters: grid=1x1, blocksize=None
  Wavefunction extrapolation:
    Improved wavefunction reuse through dual PAW basis 

Occupation numbers: Fermi-Dirac:
  width: 0.1000  # eV
 

Eigensolver
   Davidson(niter=2) 

Densities:
  Coarse grid: 14*14*14 grid
  Fine grid: 28*28*28 grid
  Total Charge: 0.000000 

Density mixing:
  Method: separate
  Backend: pulay
  Linear mixing parameter: 0.05
  old densities: 5
  Damping of long wavelength oscillations: 50 

Hamiltonian:
  XC and Coulomb potentials evaluated on a 28*28*28 grid
  Using the PBE Exchange-Correlation functional
  External potential:
    NoExternalPotential
 

XC parameters: PBE with 2 nearest neighbor stencil

Memory estimate:
  Process memory now: 323.79 MiB
  Calculator: 3.29 MiB
    Density: 0.99 MiB
      Arrays: 0.54 MiB
      Localized functions: 0.24 MiB
      Mixer: 0.21 MiB
    Hamiltonian: 0.36 MiB
      Arrays: 0.36 MiB
      XC: 0.00 MiB
      Poisson: 0.00 MiB
      vbar: 0.00 MiB
    Wavefunctions: 1.94 MiB
      Arrays psit_nG: 1.01 MiB
      Eigensolver: 0.09 MiB
      Projections: 0.07 MiB
      Projectors: 0.58 MiB
      PW-descriptor: 0.19 MiB

Total number of cores used: 8
Parallelization over k-points: 8

Number of atoms: 1
Number of atomic orbitals: 12
Number of bands in calculation: 12
Number of valence electrons: 15
Bands to converge: occupied

... initialized

Initializing position-dependent things.

Density initialized from atomic densities
Creating initial wave functions:
  12 bands from LCAO basis set

                
                
                
       Rh       
                
                
                
                

Positions:
   0 Rh     0.000000    0.000000    0.000000    ( 0.0000,  0.0000,  0.0000)

Unit cell:
           periodic     x           y           z      points  spacing
  1. axis:    yes    0.000000    1.743590    1.743590    14     0.1438
  2. axis:    yes    1.743590    0.000000    1.743590    14     0.1438
  3. axis:    yes    1.743590    1.743590    0.000000    14     0.1438

  Lengths:   2.465808   2.465808   2.465808
  Angles:   60.000000  60.000000  60.000000

Effective grid spacing dv^(1/3) = 0.1569

     iter     time        total  log10-change:
                         energy  eigst   dens
iter:   1 18:36:52    -6.600185
iter:   2 18:36:52    -6.509508  -1.76  -1.40
iter:   3 18:36:52    -6.142995  -1.31  -1.43
iter:   4 18:36:52    -6.069413  -2.80  -1.82
iter:   5 18:36:53    -6.082776  -3.76  -2.18
iter:   6 18:36:53    -6.042833  -2.11  -2.12
iter:   7 18:36:53    -6.043203  -3.05  -3.29
iter:   8 18:36:53    -6.043611c -3.75  -3.17
iter:   9 18:36:54    -6.043621c -4.43  -3.06
iter:  10 18:36:54    -6.043640c -4.74  -3.09
iter:  11 18:36:54    -6.043654c -5.76  -3.22
iter:  12 18:36:54    -6.043707c -4.91  -3.27
iter:  13 18:36:55    -6.043708c -5.91  -3.95
iter:  14 18:36:55    -6.043709c -6.62  -4.41c
iter:  15 18:36:55    -6.043710c -6.84  -4.94c
iter:  16 18:36:55    -6.043709c -7.48c -4.41c

Converged after 16 iterations.

Dipole moment: (0.000000, 0.000000, 0.000000) |e|*Ang

Energy contributions relative to reference atoms: (reference = -130134.647000)

Kinetic:        +36.040317
Potential:      -31.694009
External:        +0.000000
XC:             -10.185346
Entropy (-ST):   -0.028124
Local:           -0.190608
--------------------------
Free energy:     -6.057771
Extrapolated:    -6.043709

Showing only first 2 kpts
 Kpt  Band  Eigenvalues  Occupancy
  0     5     12.87912    2.00000
  0     6     12.88899    2.00000
  0     7     15.58632    2.00000
  0     8     15.87123    2.00000

  1     5     12.75253    2.00000
  1     6     12.75253    2.00000
  1     7     15.79716    2.00000
  1     8     15.79716    2.00000


Fermi level: 17.28972

No gap
System changes: cell 

Initialize ...

species:
  Rh:
    name: Rhodium
    id: 4e1d209aee696a641de1ffa1459b299f
    Z: 45.0
    valence: 15
    core: 30
    charge: 0.0
    file: /apps/Common/software/GPAW-setups/0.9.20000/Rh.PBE.gz
    compensation charges: {type: gauss,
                           rc: 0.38,
                           lmax: 2}
    cutoffs: {filter: 2.48,
              core: 2.35}
    valence states:
      #              energy  rcut
      - 5s(1.00)    -4.297   1.270
      - 4p(6.00)   -50.429   1.381
      - 5p(0.00)    -0.852   1.381
      - 4d(8.00)    -5.942   1.244
      -  s          22.915   1.270
      -  d          21.270   1.244
  
    # Using partial waves for Rh as LCAO basis

Reference energy: -130134.647000  # eV

Spin-paired calculation

Convergence criteria:
 Maximum [total energy] change in last 3 cyles: 0.0005 eV / electron
 Maximum integral of absolute [dens]ity change: 0.0001 electrons / valence electron
 Maximum integral of absolute [eigenst]ate change: 4e-08 eV^2 / valence electron
 Maximum number of scf [iter]ations: 333
 (Square brackets indicate name in SCF output, whereas a 'c' in
 the SCF output indicates the quantity has converged.)

Symmetries present (total): 48

  ( 1  0  0)  ( 1  0  0)  ( 1  0  0)  ( 1  0  0)  ( 1  0 -1)  ( 1  0 -1)
  ( 1  0 -1)  ( 1 -1  0)  ( 0  1  0)  ( 0  0  1)  ( 1  0  0)  ( 1 -1  0)
  ( 1 -1  0)  ( 1  0 -1)  ( 0  0  1)  ( 0  1  0)  ( 1 -1  0)  ( 1  0  0)

  ( 1  0 -1)  ( 1  0 -1)  ( 1 -1  0)  ( 1 -1  0)  ( 1 -1  0)  ( 1 -1  0)
  ( 0  1 -1)  ( 0  0 -1)  ( 1  0  0)  ( 1  0 -1)  ( 0 -1  1)  ( 0 -1  0)
  ( 0  0 -1)  ( 0  1 -1)  ( 1  0 -1)  ( 1  0  0)  ( 0 -1  0)  ( 0 -1  1)

  ( 0  1  0)  ( 0  1  0)  ( 0  1  0)  ( 0  1  0)  ( 0  1 -1)  ( 0  1 -1)
  ( 1  0  0)  ( 0  1 -1)  ( 0  0  1)  (-1  1  0)  ( 1  0 -1)  ( 0  1  0)
  ( 0  0  1)  (-1  1  0)  ( 1  0  0)  ( 0  1 -1)  ( 0  0 -1)  (-1  1  0)

  ( 0  1 -1)  ( 0  1 -1)  ( 0  0  1)  ( 0  0  1)  ( 0  0  1)  ( 0  0  1)
  ( 0  0 -1)  (-1  1  0)  ( 1  0  0)  ( 0  1  0)  ( 0 -1  1)  (-1  0  1)
  ( 1  0 -1)  ( 0  1  0)  ( 0  1  0)  ( 1  0  0)  (-1  0  1)  ( 0 -1  1)

  ( 0  0 -1)  ( 0  0 -1)  ( 0  0 -1)  ( 0  0 -1)  ( 0 -1  1)  ( 0 -1  1)
  ( 1  0 -1)  ( 0  1 -1)  ( 0 -1  0)  (-1  0  0)  ( 1 -1  0)  ( 0  0  1)
  ( 0  1 -1)  ( 1  0 -1)  (-1  0  0)  ( 0 -1  0)  ( 0 -1  0)  (-1  0  1)

  ( 0 -1  1)  ( 0 -1  1)  ( 0 -1  0)  ( 0 -1  0)  ( 0 -1  0)  ( 0 -1  0)
  ( 0 -1  0)  (-1  0  1)  ( 1 -1  0)  ( 0  0 -1)  ( 0 -1  1)  (-1  0  0)
  ( 1 -1  0)  ( 0  0  1)  ( 0 -1  1)  (-1  0  0)  ( 1 -1  0)  ( 0  0 -1)

  (-1  1  0)  (-1  1  0)  (-1  1  0)  (-1  1  0)  (-1  0  1)  (-1  0  1)
  ( 0  1  0)  ( 0  1 -1)  (-1  0  1)  (-1  0  0)  ( 0  0  1)  ( 0 -1  1)
  ( 0  1 -1)  ( 0  1  0)  (-1  0  0)  (-1  0  1)  ( 0 -1  1)  ( 0  0  1)

  (-1  0  1)  (-1  0  1)  (-1  0  0)  (-1  0  0)  (-1  0  0)  (-1  0  0)
  (-1  1  0)  (-1  0  0)  ( 0  0 -1)  ( 0 -1  0)  (-1  1  0)  (-1  0  1)
  (-1  0  0)  (-1  1  0)  ( 0 -1  0)  ( 0  0 -1)  (-1  0  1)  (-1  1  0)
Note: your k-points are not as symmetric as your crystal!

1728 k-points: 12 x 12 x 12 Monkhorst-Pack grid
182 k-points in the irreducible part of the Brillouin zone
       k-points in crystal coordinates                weights
   0:     0.04166667    0.04166667   -0.04166667          6/1728
   1:     0.04166667    0.04166667    0.04166667          2/1728
   2:     0.12500000   -0.04166667   -0.04166667          6/1728
   3:     0.12500000    0.04166667   -0.12500000         12/1728
   4:     0.12500000    0.04166667   -0.04166667         12/1728
   5:     0.12500000    0.04166667    0.04166667          6/1728
   6:     0.12500000    0.12500000   -0.12500000          6/1728
   7:     0.12500000    0.12500000   -0.04166667          6/1728
   8:     0.12500000    0.12500000    0.04166667          6/1728
   9:     0.12500000    0.12500000    0.12500000          2/1728
          ...
 181:     0.45833333    0.45833333    0.45833333          2/1728

Wave functions: Plane wave expansion
  Cutoff energy: 450.000 eV
  Number of coefficients (min, max): 228, 259
  Pulay-stress correction: 0.000000 eV/Ang^3 (de/decut=0.000000)
  Using FFTW library
  ScaLapack parameters: grid=1x1, blocksize=None
  Wavefunction extrapolation:
    Improved wavefunction reuse through dual PAW basis 

Occupation numbers: Fermi-Dirac:
  width: 0.1000  # eV
 

Eigensolver
   Davidson(niter=2) 

Densities:
  Coarse grid: 14*14*14 grid
  Fine grid: 28*28*28 grid
  Total Charge: 0.000000 

Density mixing:
  Method: separate
  Backend: pulay
  Linear mixing parameter: 0.05
  old densities: 5
  Damping of long wavelength oscillations: 50 

Hamiltonian:
  XC and Coulomb potentials evaluated on a 28*28*28 grid
  Using the PBE Exchange-Correlation functional
  External potential:
    NoExternalPotential
 

XC parameters: PBE with 2 nearest neighbor stencil

Memory estimate:
  Process memory now: 323.79 MiB
  Calculator: 3.37 MiB
    Density: 1.00 MiB
      Arrays: 0.54 MiB
      Localized functions: 0.25 MiB
      Mixer: 0.21 MiB
    Hamiltonian: 0.36 MiB
      Arrays: 0.36 MiB
      XC: 0.00 MiB
      Poisson: 0.00 MiB
      vbar: 0.00 MiB
    Wavefunctions: 2.01 MiB
      Arrays psit_nG: 1.04 MiB
      Eigensolver: 0.09 MiB
      Projections: 0.07 MiB
      Projectors: 0.61 MiB
      PW-descriptor: 0.19 MiB

Total number of cores used: 8
Parallelization over k-points: 8

Number of atoms: 1
Number of atomic orbitals: 12
Number of bands in calculation: 12
Number of valence electrons: 15
Bands to converge: occupied

... initialized

Initializing position-dependent things.

Density initialized from atomic densities
Creating initial wave functions:
  12 bands from LCAO basis set

                
                
                
       Rh       
                
                
                
                

Positions:
   0 Rh     0.000000    0.000000    0.000000    ( 0.0000,  0.0000,  0.0000)

Unit cell:
           periodic     x           y           z      points  spacing
  1. axis:    yes    0.000000    1.764103    1.764103    14     0.1455
  2. axis:    yes    1.764103    0.000000    1.764103    14     0.1455
  3. axis:    yes    1.764103    1.764103    0.000000    14     0.1455

  Lengths:   2.494818   2.494818   2.494818
  Angles:   60.000000  60.000000  60.000000

Effective grid spacing dv^(1/3) = 0.1588

     iter     time        total  log10-change:
                         energy  eigst   dens
iter:   1 18:36:57    -6.932226
iter:   2 18:36:57    -6.837831  -1.77  -1.40
iter:   3 18:36:58    -6.468984  -1.29  -1.43
iter:   4 18:36:58    -6.392347  -2.77  -1.82
iter:   5 18:36:58    -6.370021  -2.60  -2.20
iter:   6 18:36:58    -6.367548  -2.75  -2.52
iter:   7 18:36:59    -6.367788c -3.60  -3.09
iter:   8 18:36:59    -6.367736c -4.13  -2.98
iter:   9 18:36:59    -6.367725c -5.62  -3.89
iter:  10 18:36:59    -6.367707c -6.08  -3.79
iter:  11 18:37:00    -6.367733c -5.39  -3.56
iter:  12 18:37:00    -6.367733c -6.41  -4.57c
iter:  13 18:37:00    -6.367733c -7.37  -5.31c
iter:  14 18:37:00    -6.367733c -8.09c -5.06c

Converged after 14 iterations.

Dipole moment: (-0.000000, 0.000000, 0.000000) |e|*Ang

Energy contributions relative to reference atoms: (reference = -130134.647000)

Kinetic:        +28.877169
Potential:      -25.782352
External:        +0.000000
XC:              -9.293957
Entropy (-ST):   -0.029854
Local:           -0.153666
--------------------------
Free energy:     -6.382660
Extrapolated:    -6.367733

Showing only first 2 kpts
 Kpt  Band  Eigenvalues  Occupancy
  0     5     12.28881    2.00000
  0     6     12.29786    2.00000
  0     7     14.85665    2.00000
  0     8     15.12395    2.00000

  1     5     12.16894    2.00000
  1     6     12.16894    2.00000
  1     7     15.05374    2.00000
  1     8     15.05374    2.00000


Fermi level: 16.46731

No gap
System changes: cell 

Initialize ...

species:
  Rh:
    name: Rhodium
    id: 4e1d209aee696a641de1ffa1459b299f
    Z: 45.0
    valence: 15
    core: 30
    charge: 0.0
    file: /apps/Common/software/GPAW-setups/0.9.20000/Rh.PBE.gz
    compensation charges: {type: gauss,
                           rc: 0.38,
                           lmax: 2}
    cutoffs: {filter: 2.48,
              core: 2.35}
    valence states:
      #              energy  rcut
      - 5s(1.00)    -4.297   1.270
      - 4p(6.00)   -50.429   1.381
      - 5p(0.00)    -0.852   1.381
      - 4d(8.00)    -5.942   1.244
      -  s          22.915   1.270
      -  d          21.270   1.244
  
    # Using partial waves for Rh as LCAO basis

Reference energy: -130134.647000  # eV

Spin-paired calculation

Convergence criteria:
 Maximum [total energy] change in last 3 cyles: 0.0005 eV / electron
 Maximum integral of absolute [dens]ity change: 0.0001 electrons / valence electron
 Maximum integral of absolute [eigenst]ate change: 4e-08 eV^2 / valence electron
 Maximum number of scf [iter]ations: 333
 (Square brackets indicate name in SCF output, whereas a 'c' in
 the SCF output indicates the quantity has converged.)

Symmetries present (total): 48

  ( 1  0  0)  ( 1  0  0)  ( 1  0  0)  ( 1  0  0)  ( 1  0 -1)  ( 1  0 -1)
  ( 1  0 -1)  ( 1 -1  0)  ( 0  1  0)  ( 0  0  1)  ( 1  0  0)  ( 1 -1  0)
  ( 1 -1  0)  ( 1  0 -1)  ( 0  0  1)  ( 0  1  0)  ( 1 -1  0)  ( 1  0  0)

  ( 1  0 -1)  ( 1  0 -1)  ( 1 -1  0)  ( 1 -1  0)  ( 1 -1  0)  ( 1 -1  0)
  ( 0  1 -1)  ( 0  0 -1)  ( 1  0  0)  ( 1  0 -1)  ( 0 -1  1)  ( 0 -1  0)
  ( 0  0 -1)  ( 0  1 -1)  ( 1  0 -1)  ( 1  0  0)  ( 0 -1  0)  ( 0 -1  1)

  ( 0  1  0)  ( 0  1  0)  ( 0  1  0)  ( 0  1  0)  ( 0  1 -1)  ( 0  1 -1)
  ( 1  0  0)  ( 0  1 -1)  ( 0  0  1)  (-1  1  0)  ( 1  0 -1)  ( 0  1  0)
  ( 0  0  1)  (-1  1  0)  ( 1  0  0)  ( 0  1 -1)  ( 0  0 -1)  (-1  1  0)

  ( 0  1 -1)  ( 0  1 -1)  ( 0  0  1)  ( 0  0  1)  ( 0  0  1)  ( 0  0  1)
  ( 0  0 -1)  (-1  1  0)  ( 1  0  0)  ( 0  1  0)  ( 0 -1  1)  (-1  0  1)
  ( 1  0 -1)  ( 0  1  0)  ( 0  1  0)  ( 1  0  0)  (-1  0  1)  ( 0 -1  1)

  ( 0  0 -1)  ( 0  0 -1)  ( 0  0 -1)  ( 0  0 -1)  ( 0 -1  1)  ( 0 -1  1)
  ( 1  0 -1)  ( 0  1 -1)  ( 0 -1  0)  (-1  0  0)  ( 1 -1  0)  ( 0  0  1)
  ( 0  1 -1)  ( 1  0 -1)  (-1  0  0)  ( 0 -1  0)  ( 0 -1  0)  (-1  0  1)

  ( 0 -1  1)  ( 0 -1  1)  ( 0 -1  0)  ( 0 -1  0)  ( 0 -1  0)  ( 0 -1  0)
  ( 0 -1  0)  (-1  0  1)  ( 1 -1  0)  ( 0  0 -1)  ( 0 -1  1)  (-1  0  0)
  ( 1 -1  0)  ( 0  0  1)  ( 0 -1  1)  (-1  0  0)  ( 1 -1  0)  ( 0  0 -1)

  (-1  1  0)  (-1  1  0)  (-1  1  0)  (-1  1  0)  (-1  0  1)  (-1  0  1)
  ( 0  1  0)  ( 0  1 -1)  (-1  0  1)  (-1  0  0)  ( 0  0  1)  ( 0 -1  1)
  ( 0  1 -1)  ( 0  1  0)  (-1  0  0)  (-1  0  1)  ( 0 -1  1)  ( 0  0  1)

  (-1  0  1)  (-1  0  1)  (-1  0  0)  (-1  0  0)  (-1  0  0)  (-1  0  0)
  (-1  1  0)  (-1  0  0)  ( 0  0 -1)  ( 0 -1  0)  (-1  1  0)  (-1  0  1)
  (-1  0  0)  (-1  1  0)  ( 0 -1  0)  ( 0  0 -1)  (-1  0  1)  (-1  1  0)
Note: your k-points are not as symmetric as your crystal!

1728 k-points: 12 x 12 x 12 Monkhorst-Pack grid
182 k-points in the irreducible part of the Brillouin zone
       k-points in crystal coordinates                weights
   0:     0.04166667    0.04166667   -0.04166667          6/1728
   1:     0.04166667    0.04166667    0.04166667          2/1728
   2:     0.12500000   -0.04166667   -0.04166667          6/1728
   3:     0.12500000    0.04166667   -0.12500000         12/1728
   4:     0.12500000    0.04166667   -0.04166667         12/1728
   5:     0.12500000    0.04166667    0.04166667          6/1728
   6:     0.12500000    0.12500000   -0.12500000          6/1728
   7:     0.12500000    0.12500000   -0.04166667          6/1728
   8:     0.12500000    0.12500000    0.04166667          6/1728
   9:     0.12500000    0.12500000    0.12500000          2/1728
          ...
 181:     0.45833333    0.45833333    0.45833333          2/1728

Wave functions: Plane wave expansion
  Cutoff energy: 450.000 eV
  Number of coefficients (min, max): 239, 262
  Pulay-stress correction: 0.000000 eV/Ang^3 (de/decut=0.000000)
  Using FFTW library
  ScaLapack parameters: grid=1x1, blocksize=None
  Wavefunction extrapolation:
    Improved wavefunction reuse through dual PAW basis 

Occupation numbers: Fermi-Dirac:
  width: 0.1000  # eV
 

Eigensolver
   Davidson(niter=2) 

Densities:
  Coarse grid: 14*14*14 grid
  Fine grid: 28*28*28 grid
  Total Charge: 0.000000 

Density mixing:
  Method: separate
  Backend: pulay
  Linear mixing parameter: 0.05
  old densities: 5
  Damping of long wavelength oscillations: 50 

Hamiltonian:
  XC and Coulomb potentials evaluated on a 28*28*28 grid
  Using the PBE Exchange-Correlation functional
  External potential:
    NoExternalPotential
 

XC parameters: PBE with 2 nearest neighbor stencil

Memory estimate:
  Process memory now: 323.79 MiB
  Calculator: 3.43 MiB
    Density: 1.02 MiB
      Arrays: 0.54 MiB
      Localized functions: 0.26 MiB
      Mixer: 0.21 MiB
    Hamiltonian: 0.36 MiB
      Arrays: 0.36 MiB
      XC: 0.00 MiB
      Poisson: 0.00 MiB
      vbar: 0.01 MiB
    Wavefunctions: 2.05 MiB
      Arrays psit_nG: 1.06 MiB
      Eigensolver: 0.09 MiB
      Projections: 0.07 MiB
      Projectors: 0.64 MiB
      PW-descriptor: 0.19 MiB

Total number of cores used: 8
Parallelization over k-points: 8

Number of atoms: 1
Number of atomic orbitals: 12
Number of bands in calculation: 12
Number of valence electrons: 15
Bands to converge: occupied

... initialized

Initializing position-dependent things.

Density initialized from atomic densities
Creating initial wave functions:
  12 bands from LCAO basis set

                
                
                
       Rh       
                
                
                
                

Positions:
   0 Rh     0.000000    0.000000    0.000000    ( 0.0000,  0.0000,  0.0000)

Unit cell:
           periodic     x           y           z      points  spacing
  1. axis:    yes    0.000000    1.784615    1.784615    14     0.1472
  2. axis:    yes    1.784615    0.000000    1.784615    14     0.1472
  3. axis:    yes    1.784615    1.784615    0.000000    14     0.1472

  Lengths:   2.523827   2.523827   2.523827
  Angles:   60.000000  60.000000  60.000000

Effective grid spacing dv^(1/3) = 0.1606

     iter     time        total  log10-change:
                         energy  eigst   dens
iter:   1 18:37:02    -7.204587
iter:   2 18:37:03    -7.106522  -1.77  -1.39
iter:   3 18:37:03    -6.735197  -1.27  -1.42
iter:   4 18:37:03    -6.655493  -2.72  -1.82
iter:   5 18:37:03    -6.636651  -2.09  -2.22
iter:   6 18:37:04    -6.632827  -3.58  -2.84
iter:   7 18:37:04    -6.632990c -4.32  -2.99
iter:   8 18:37:04    -6.632678c -4.07  -2.97
iter:   9 18:37:04    -6.632669c -5.70  -3.78
iter:  10 18:37:05    -6.632667c -6.70  -3.86
iter:  11 18:37:05    -6.632674c -5.95  -3.75
iter:  12 18:37:05    -6.632677c -6.38  -4.14c
iter:  13 18:37:05    -6.632677c -7.32  -5.31c
iter:  14 18:37:06    -6.632677c -7.81c -5.43c

Converged after 14 iterations.

Dipole moment: (-0.000000, -0.000000, -0.000000) |e|*Ang

Energy contributions relative to reference atoms: (reference = -130134.647000)

Kinetic:        +22.566471
Potential:      -20.580494
External:        +0.000000
XC:              -8.475667
Entropy (-ST):   -0.031701
Local:           -0.127137
--------------------------
Free energy:     -6.648527
Extrapolated:    -6.632677

Showing only first 2 kpts
 Kpt  Band  Eigenvalues  Occupancy
  0     5     11.72126    2.00000
  0     6     11.72988    2.00000
  0     7     14.15771    2.00000
  0     8     14.40892    1.99999

  1     5     11.60758    2.00000
  1     6     11.60758    2.00000
  1     7     14.34233    2.00000
  1     8     14.34233    2.00000


Fermi level: 15.68172

No gap
System changes: cell 

Initialize ...

species:
  Rh:
    name: Rhodium
    id: 4e1d209aee696a641de1ffa1459b299f
    Z: 45.0
    valence: 15
    core: 30
    charge: 0.0
[...]
XC:              -0.432007
Entropy (-ST):   -0.136106
Local:           -0.192744
--------------------------
Free energy:     -5.194506
Extrapolated:    -5.126453

Showing only first 2 kpts
 Kpt  Band  Eigenvalues  Occupancy
  0     5      2.27509    1.99994
  0     6      2.27713    1.99994
  0     7      2.91258    1.96534
  0     8      2.96864    1.94007

  1     5      2.24283    1.99996
  1     6      2.24283    1.99996
  1     7      2.95078    1.94962
  1     8      2.95078    1.94962


Fermi level: 3.31637

No gap
System changes: cell 

Initialize ...

species:
  Rh:
    name: Rhodium
    id: 4e1d209aee696a641de1ffa1459b299f
    Z: 45.0
    valence: 15
    core: 30
    charge: 0.0
    file: /apps/Common/software/GPAW-setups/0.9.20000/Rh.PBE.gz
    compensation charges: {type: gauss,
                           rc: 0.38,
                           lmax: 2}
    cutoffs: {filter: 2.48,
              core: 2.35}
    valence states:
      #              energy  rcut
      - 5s(1.00)    -4.297   1.270
      - 4p(6.00)   -50.429   1.381
      - 5p(0.00)    -0.852   1.381
      - 4d(8.00)    -5.942   1.244
      -  s          22.915   1.270
      -  d          21.270   1.244
  
    # Using partial waves for Rh as LCAO basis

Reference energy: -130134.647000  # eV

Spin-paired calculation

Convergence criteria:
 Maximum [total energy] change in last 3 cyles: 0.0005 eV / electron
 Maximum integral of absolute [dens]ity change: 0.0001 electrons / valence electron
 Maximum integral of absolute [eigenst]ate change: 4e-08 eV^2 / valence electron
 Maximum number of scf [iter]ations: 333
 (Square brackets indicate name in SCF output, whereas a 'c' in
 the SCF output indicates the quantity has converged.)

Symmetries present (total): 48

  ( 1  0  0)  ( 1  0  0)  ( 1  0  0)  ( 1  0  0)  ( 1  0 -1)  ( 1  0 -1)
  ( 1  0 -1)  ( 1 -1  0)  ( 0  1  0)  ( 0  0  1)  ( 1  0  0)  ( 1 -1  0)
  ( 1 -1  0)  ( 1  0 -1)  ( 0  0  1)  ( 0  1  0)  ( 1 -1  0)  ( 1  0  0)

  ( 1  0 -1)  ( 1  0 -1)  ( 1 -1  0)  ( 1 -1  0)  ( 1 -1  0)  ( 1 -1  0)
  ( 0  1 -1)  ( 0  0 -1)  ( 1  0  0)  ( 1  0 -1)  ( 0 -1  1)  ( 0 -1  0)
  ( 0  0 -1)  ( 0  1 -1)  ( 1  0 -1)  ( 1  0  0)  ( 0 -1  0)  ( 0 -1  1)

  ( 0  1  0)  ( 0  1  0)  ( 0  1  0)  ( 0  1  0)  ( 0  1 -1)  ( 0  1 -1)
  ( 1  0  0)  ( 0  1 -1)  ( 0  0  1)  (-1  1  0)  ( 1  0 -1)  ( 0  1  0)
  ( 0  0  1)  (-1  1  0)  ( 1  0  0)  ( 0  1 -1)  ( 0  0 -1)  (-1  1  0)

  ( 0  1 -1)  ( 0  1 -1)  ( 0  0  1)  ( 0  0  1)  ( 0  0  1)  ( 0  0  1)
  ( 0  0 -1)  (-1  1  0)  ( 1  0  0)  ( 0  1  0)  ( 0 -1  1)  (-1  0  1)
  ( 1  0 -1)  ( 0  1  0)  ( 0  1  0)  ( 1  0  0)  (-1  0  1)  ( 0 -1  1)

  ( 0  0 -1)  ( 0  0 -1)  ( 0  0 -1)  ( 0  0 -1)  ( 0 -1  1)  ( 0 -1  1)
  ( 1  0 -1)  ( 0  1 -1)  ( 0 -1  0)  (-1  0  0)  ( 1 -1  0)  ( 0  0  1)
  ( 0  1 -1)  ( 1  0 -1)  (-1  0  0)  ( 0 -1  0)  ( 0 -1  0)  (-1  0  1)

  ( 0 -1  1)  ( 0 -1  1)  ( 0 -1  0)  ( 0 -1  0)  ( 0 -1  0)  ( 0 -1  0)
  ( 0 -1  0)  (-1  0  1)  ( 1 -1  0)  ( 0  0 -1)  ( 0 -1  1)  (-1  0  0)
  ( 1 -1  0)  ( 0  0  1)  ( 0 -1  1)  (-1  0  0)  ( 1 -1  0)  ( 0  0 -1)

  (-1  1  0)  (-1  1  0)  (-1  1  0)  (-1  1  0)  (-1  0  1)  (-1  0  1)
  ( 0  1  0)  ( 0  1 -1)  (-1  0  1)  (-1  0  0)  ( 0  0  1)  ( 0 -1  1)
  ( 0  1 -1)  ( 0  1  0)  (-1  0  0)  (-1  0  1)  ( 0 -1  1)  ( 0  0  1)

  (-1  0  1)  (-1  0  1)  (-1  0  0)  (-1  0  0)  (-1  0  0)  (-1  0  0)
  (-1  1  0)  (-1  0  0)  ( 0  0 -1)  ( 0 -1  0)  (-1  1  0)  (-1  0  1)
  (-1  0  0)  (-1  1  0)  ( 0 -1  0)  ( 0  0 -1)  (-1  0  1)  (-1  1  0)
Note: your k-points are not as symmetric as your crystal!

1728 k-points: 12 x 12 x 12 Monkhorst-Pack grid
182 k-points in the irreducible part of the Brillouin zone
       k-points in crystal coordinates                weights
   0:     0.04166667    0.04166667   -0.04166667          6/1728
   1:     0.04166667    0.04166667    0.04166667          2/1728
   2:     0.12500000   -0.04166667   -0.04166667          6/1728
   3:     0.12500000    0.04166667   -0.12500000         12/1728
   4:     0.12500000    0.04166667   -0.04166667         12/1728
   5:     0.12500000    0.04166667    0.04166667          6/1728
   6:     0.12500000    0.12500000   -0.12500000          6/1728
   7:     0.12500000    0.12500000   -0.04166667          6/1728
   8:     0.12500000    0.12500000    0.04166667          6/1728
   9:     0.12500000    0.12500000    0.12500000          2/1728
          ...
 181:     0.45833333    0.45833333    0.45833333          2/1728

Wave functions: Plane wave expansion
  Cutoff energy: 450.000 eV
  Number of coefficients (min, max): 571, 595
  Pulay-stress correction: 0.000000 eV/Ang^3 (de/decut=0.000000)
  Using FFTW library
  ScaLapack parameters: grid=1x1, blocksize=None
  Wavefunction extrapolation:
    Improved wavefunction reuse through dual PAW basis 

Occupation numbers: Fermi-Dirac:
  width: 0.1000  # eV
 

Eigensolver
   Davidson(niter=2) 

Densities:
  Coarse grid: 18*18*18 grid
  Fine grid: 36*36*36 grid
  Total Charge: 0.000000 

Density mixing:
  Method: separate
  Backend: pulay
  Linear mixing parameter: 0.05
  old densities: 5
  Damping of long wavelength oscillations: 50 

Hamiltonian:
  XC and Coulomb potentials evaluated on a 36*36*36 grid
  Using the PBE Exchange-Correlation functional
  External potential:
    NoExternalPotential
 

XC parameters: PBE with 2 nearest neighbor stencil

Memory estimate:
  Process memory now: 325.69 MiB
  Calculator: 7.52 MiB
    Density: 2.22 MiB
      Arrays: 1.16 MiB
      Localized functions: 0.62 MiB
      Mixer: 0.44 MiB
    Hamiltonian: 0.77 MiB
      Arrays: 0.76 MiB
      XC: 0.00 MiB
      Poisson: 0.00 MiB
      vbar: 0.01 MiB
    Wavefunctions: 4.52 MiB
      Arrays psit_nG: 2.40 MiB
      Eigensolver: 0.18 MiB
      Projections: 0.07 MiB
      Projectors: 1.46 MiB
      PW-descriptor: 0.42 MiB

Total number of cores used: 8
Parallelization over k-points: 8

Number of atoms: 1
Number of atomic orbitals: 12
Number of bands in calculation: 12
Number of valence electrons: 15
Bands to converge: occupied

... initialized

Initializing position-dependent things.

Density initialized from atomic densities
Creating initial wave functions:
  12 bands from LCAO basis set

                
                
                
       Rh       
                
                
                
                

Positions:
   0 Rh     0.000000    0.000000    0.000000    ( 0.0000,  0.0000,  0.0000)

Unit cell:
           periodic     x           y           z      points  spacing
  1. axis:    yes    0.000000    2.379487    2.379487    18     0.1526
  2. axis:    yes    2.379487    0.000000    2.379487    18     0.1526
  3. axis:    yes    2.379487    2.379487    0.000000    18     0.1526

  Lengths:   3.365103   3.365103   3.365103
  Angles:   60.000000  60.000000  60.000000

Effective grid spacing dv^(1/3) = 0.1666

     iter     time        total  log10-change:
                         energy  eigst   dens
iter:   1 18:39:32    -5.232591
iter:   2 18:39:33    -5.160671  -2.09  -1.43
iter:   3 18:39:33    -5.013318  -1.41  -1.49
iter:   4 18:39:34    -5.002456  -3.34  -2.06
iter:   5 18:39:34    -5.020510  -2.39  -2.08
iter:   6 18:39:35    -5.004640  -2.76  -2.13
iter:   7 18:39:35    -5.004913  -4.20  -2.84
iter:   8 18:39:36    -5.004733c -4.79  -2.70
iter:   9 18:39:36    -5.004688c -4.31  -2.91
iter:  10 18:39:37    -5.004694c -5.77  -4.32c
iter:  11 18:39:37    -5.004696c -6.84  -4.19c
iter:  12 18:39:38    -5.004701c -7.45c -4.12c

Converged after 12 iterations.

Dipole moment: (-0.000000, -0.000000, -0.000000) |e|*Ang

Energy contributions relative to reference atoms: (reference = -130134.647000)

Kinetic:        -16.245176
Potential:      +11.921842
External:        +0.000000
XC:              -0.411230
Entropy (-ST):   -0.141193
Local:           -0.199541
--------------------------
Free energy:     -5.075298
Extrapolated:    -5.004701

Showing only first 2 kpts
 Kpt  Band  Eigenvalues  Occupancy
  0     5      2.09424    1.99991
  0     6      2.09614    1.99991
  0     7      2.70467    1.95955
  0     8      2.75794    1.93205

  1     5      2.06305    1.99993
  1     6      2.06305    1.99993
  1     7      2.74070    1.94251
  1     8      2.74070    1.94251


Fermi level: 3.09271

No gap
System changes: cell 

Initialize ...

species:
  Rh:
    name: Rhodium
    id: 4e1d209aee696a641de1ffa1459b299f
    Z: 45.0
    valence: 15
    core: 30
    charge: 0.0
    file: /apps/Common/software/GPAW-setups/0.9.20000/Rh.PBE.gz
    compensation charges: {type: gauss,
                           rc: 0.38,
                           lmax: 2}
    cutoffs: {filter: 2.48,
              core: 2.35}
    valence states:
      #              energy  rcut
      - 5s(1.00)    -4.297   1.270
      - 4p(6.00)   -50.429   1.381
      - 5p(0.00)    -0.852   1.381
      - 4d(8.00)    -5.942   1.244
      -  s          22.915   1.270
      -  d          21.270   1.244
  
    # Using partial waves for Rh as LCAO basis

Reference energy: -130134.647000  # eV

Spin-paired calculation

Convergence criteria:
 Maximum [total energy] change in last 3 cyles: 0.0005 eV / electron
 Maximum integral of absolute [dens]ity change: 0.0001 electrons / valence electron
 Maximum integral of absolute [eigenst]ate change: 4e-08 eV^2 / valence electron
 Maximum number of scf [iter]ations: 333
 (Square brackets indicate name in SCF output, whereas a 'c' in
 the SCF output indicates the quantity has converged.)

Symmetries present (total): 48

  ( 1  0  0)  ( 1  0  0)  ( 1  0  0)  ( 1  0  0)  ( 1  0 -1)  ( 1  0 -1)
  ( 1  0 -1)  ( 1 -1  0)  ( 0  1  0)  ( 0  0  1)  ( 1  0  0)  ( 1 -1  0)
  ( 1 -1  0)  ( 1  0 -1)  ( 0  0  1)  ( 0  1  0)  ( 1 -1  0)  ( 1  0  0)

  ( 1  0 -1)  ( 1  0 -1)  ( 1 -1  0)  ( 1 -1  0)  ( 1 -1  0)  ( 1 -1  0)
  ( 0  1 -1)  ( 0  0 -1)  ( 1  0  0)  ( 1  0 -1)  ( 0 -1  1)  ( 0 -1  0)
  ( 0  0 -1)  ( 0  1 -1)  ( 1  0 -1)  ( 1  0  0)  ( 0 -1  0)  ( 0 -1  1)

  ( 0  1  0)  ( 0  1  0)  ( 0  1  0)  ( 0  1  0)  ( 0  1 -1)  ( 0  1 -1)
  ( 1  0  0)  ( 0  1 -1)  ( 0  0  1)  (-1  1  0)  ( 1  0 -1)  ( 0  1  0)
  ( 0  0  1)  (-1  1  0)  ( 1  0  0)  ( 0  1 -1)  ( 0  0 -1)  (-1  1  0)

  ( 0  1 -1)  ( 0  1 -1)  ( 0  0  1)  ( 0  0  1)  ( 0  0  1)  ( 0  0  1)
  ( 0  0 -1)  (-1  1  0)  ( 1  0  0)  ( 0  1  0)  ( 0 -1  1)  (-1  0  1)
  ( 1  0 -1)  ( 0  1  0)  ( 0  1  0)  ( 1  0  0)  (-1  0  1)  ( 0 -1  1)

  ( 0  0 -1)  ( 0  0 -1)  ( 0  0 -1)  ( 0  0 -1)  ( 0 -1  1)  ( 0 -1  1)
  ( 1  0 -1)  ( 0  1 -1)  ( 0 -1  0)  (-1  0  0)  ( 1 -1  0)  ( 0  0  1)
  ( 0  1 -1)  ( 1  0 -1)  (-1  0  0)  ( 0 -1  0)  ( 0 -1  0)  (-1  0  1)

  ( 0 -1  1)  ( 0 -1  1)  ( 0 -1  0)  ( 0 -1  0)  ( 0 -1  0)  ( 0 -1  0)
  ( 0 -1  0)  (-1  0  1)  ( 1 -1  0)  ( 0  0 -1)  ( 0 -1  1)  (-1  0  0)
  ( 1 -1  0)  ( 0  0  1)  ( 0 -1  1)  (-1  0  0)  ( 1 -1  0)  ( 0  0 -1)

  (-1  1  0)  (-1  1  0)  (-1  1  0)  (-1  1  0)  (-1  0  1)  (-1  0  1)
  ( 0  1  0)  ( 0  1 -1)  (-1  0  1)  (-1  0  0)  ( 0  0  1)  ( 0 -1  1)
  ( 0  1 -1)  ( 0  1  0)  (-1  0  0)  (-1  0  1)  ( 0 -1  1)  ( 0  0  1)

  (-1  0  1)  (-1  0  1)  (-1  0  0)  (-1  0  0)  (-1  0  0)  (-1  0  0)
  (-1  1  0)  (-1  0  0)  ( 0  0 -1)  ( 0 -1  0)  (-1  1  0)  (-1  0  1)
  (-1  0  0)  (-1  1  0)  ( 0 -1  0)  ( 0  0 -1)  (-1  0  1)  (-1  1  0)
Note: your k-points are not as symmetric as your crystal!

1728 k-points: 12 x 12 x 12 Monkhorst-Pack grid
182 k-points in the irreducible part of the Brillouin zone
       k-points in crystal coordinates                weights
   0:     0.04166667    0.04166667   -0.04166667          6/1728
   1:     0.04166667    0.04166667    0.04166667          2/1728
   2:     0.12500000   -0.04166667   -0.04166667          6/1728
   3:     0.12500000    0.04166667   -0.12500000         12/1728
   4:     0.12500000    0.04166667   -0.04166667         12/1728
   5:     0.12500000    0.04166667    0.04166667          6/1728
   6:     0.12500000    0.12500000   -0.12500000          6/1728
   7:     0.12500000    0.12500000   -0.04166667          6/1728
   8:     0.12500000    0.12500000    0.04166667          6/1728
   9:     0.12500000    0.12500000    0.12500000          2/1728
          ...
 181:     0.45833333    0.45833333    0.45833333          2/1728

Wave functions: Plane wave expansion
  Cutoff energy: 450.000 eV
  Number of coefficients (min, max): 584, 610
  Pulay-stress correction: 0.000000 eV/Ang^3 (de/decut=0.000000)
  Using FFTW library
  ScaLapack parameters: grid=1x1, blocksize=None
  Wavefunction extrapolation:
    Improved wavefunction reuse through dual PAW basis 

Occupation numbers: Fermi-Dirac:
  width: 0.1000  # eV
 

Eigensolver
   Davidson(niter=2) 

Densities:
  Coarse grid: 18*18*18 grid
  Fine grid: 36*36*36 grid
  Total Charge: 0.000000 

Density mixing:
  Method: separate
  Backend: pulay
  Linear mixing parameter: 0.05
  old densities: 5
  Damping of long wavelength oscillations: 50 

Hamiltonian:
  XC and Coulomb potentials evaluated on a 36*36*36 grid
  Using the PBE Exchange-Correlation functional
  External potential:
    NoExternalPotential
 

XC parameters: PBE with 2 nearest neighbor stencil

Memory estimate:
  Process memory now: 325.69 MiB
  Calculator: 7.63 MiB
    Density: 2.23 MiB
      Arrays: 1.16 MiB
      Localized functions: 0.63 MiB
      Mixer: 0.44 MiB
    Hamiltonian: 0.77 MiB
      Arrays: 0.76 MiB
      XC: 0.00 MiB
      Poisson: 0.00 MiB
      vbar: 0.01 MiB
    Wavefunctions: 4.63 MiB
      Arrays psit_nG: 2.46 MiB
      Eigensolver: 0.18 MiB
      Projections: 0.07 MiB
      Projectors: 1.49 MiB
      PW-descriptor: 0.43 MiB

Total number of cores used: 8
Parallelization over k-points: 8

Number of atoms: 1
Number of atomic orbitals: 12
Number of bands in calculation: 12
Number of valence electrons: 15
Bands to converge: occupied

... initialized

Initializing position-dependent things.

Density initialized from atomic densities
Creating initial wave functions:
  12 bands from LCAO basis set

                
                
                
       Rh       
                
                
                
                

Positions:
   0 Rh     0.000000    0.000000    0.000000    ( 0.0000,  0.0000,  0.0000)

Unit cell:
           periodic     x           y           z      points  spacing
  1. axis:    yes    0.000000    2.400000    2.400000    18     0.1540
  2. axis:    yes    2.400000    0.000000    2.400000    18     0.1540
  3. axis:    yes    2.400000    2.400000    0.000000    18     0.1540

  Lengths:   3.394113   3.394113   3.394113
  Angles:   60.000000  60.000000  60.000000

Effective grid spacing dv^(1/3) = 0.1680

     iter     time        total  log10-change:
                         energy  eigst   dens
iter:   1 18:39:39    -5.093645
iter:   2 18:39:40    -5.026591  -2.10  -1.44
iter:   3 18:39:40    -4.891685  -1.44  -1.50
iter:   4 18:39:41    -4.882547  -3.39  -2.07
iter:   5 18:39:41    -4.899176  -2.42  -2.08
iter:   6 18:39:42    -4.884924  -2.79  -2.14
iter:   7 18:39:42    -4.885170  -4.23  -2.82
iter:   8 18:39:43    -4.884993c -4.71  -2.69
iter:   9 18:39:43    -4.884967c -4.33  -2.92
iter:  10 18:39:44    -4.884966c -5.82  -4.30c
iter:  11 18:39:44    -4.884973c -6.76  -4.23c
iter:  12 18:39:45    -4.884972c -7.47c -4.17c

Converged after 12 iterations.

Dipole moment: (0.000000, 0.000000, 0.000000) |e|*Ang

Energy contributions relative to reference atoms: (reference = -130134.647000)

Kinetic:        -15.843758
Potential:      +11.629478
External:        +0.000000
XC:              -0.390079
Entropy (-ST):   -0.146337
Local:           -0.207446
--------------------------
Free energy:     -4.958140
Extrapolated:    -4.884972

Showing only first 2 kpts
 Kpt  Band  Eigenvalues  Occupancy
  0     5      1.91828    1.99986
  0     6      1.92027    1.99986
  0     7      2.50291    1.95324
  0     8      2.55352    1.92361

  1     5      1.88829    1.99990
  1     6      1.88829    1.99990
  1     7      2.53700    1.93486
  1     8      2.53700    1.93486


Fermi level: 2.87613

No gap
Timing:                              incl.     excl.
-----------------------------------------------------------
Hamiltonian:                         2.772     0.012   0.0% |
 Atomic:                             2.329     2.329   1.1% |
  XC Correction:                     0.000     0.000   0.0% |
 Calculate atomic Hamiltonians:      0.023     0.023   0.0% |
 Communicate:                        0.002     0.002   0.0% |
 Initialize Hamiltonian:             0.003     0.003   0.0% |
 Poisson:                            0.004     0.004   0.0% |
 XC 3D grid:                         0.399     0.399   0.2% |
LCAO initialization:                36.908     3.402   1.6% ||
 LCAO eigensolver:                  13.630     0.032   0.0% |
  Calculate projections:             0.017     0.017   0.0% |
  DenseAtomicCorrection:             0.065     0.065   0.0% |
  Distribute overlap matrix:         0.017     0.017   0.0% |
  Orbital Layouts:                   0.170     0.170   0.1% |
  Potential matrix:                 13.081    13.081   6.2% |-|
  Sum over cells:                    0.249     0.249   0.1% |
 LCAO to grid:                      14.252    14.252   6.8% |--|
 Set positions (LCAO WFS):           5.624     0.900   0.4% |
  Basic WFS set positions:           0.064     0.064   0.0% |
  Basis functions set positions:     0.001     0.001   0.0% |
  P tci:                             1.257     1.257   0.6% |
  ST tci:                            2.862     2.862   1.4% ||
  mktci:                             0.540     0.540   0.3% |
PWDescriptor:                        0.135     0.135   0.1% |
SCF-cycle:                         156.186    12.111   5.8% |-|
 Davidson:                          98.464    21.742  10.3% |---|
  Apply H:                          11.636    10.644   5.1% |-|
   HMM T:                            0.993     0.993   0.5% |
  Subspace diag:                    18.529     0.916   0.4% |
   calc_h_matrix:                   13.745     2.162   1.0% |
    Apply H:                        11.583    10.558   5.0% |-|
     HMM T:                          1.026     1.026   0.5% |
   diagonalize:                      2.632     2.632   1.3% ||
   rotate_psi:                       1.236     1.236   0.6% |
  calc. matrices:                   35.609    12.461   5.9% |-|
   Apply H:                         23.148    21.149  10.0% |---|
    HMM T:                           1.999     1.999   0.9% |
  diagonalize:                       9.227     9.227   4.4% |-|
  rotate_psi:                        1.720     1.720   0.8% |
 Density:                           10.977     0.011   0.0% |
  Atomic density matrices:           0.702     0.702   0.3% |
  Mix:                               0.817     0.817   0.4% |
  Multipole moments:                 0.048     0.048   0.0% |
  Pseudo density:                    9.399     4.939   2.3% ||
   Symmetrize density:               4.460     4.460   2.1% ||
 Hamiltonian:                       34.201     0.144   0.1% |
  Atomic:                           28.877    28.875  13.7% |----|
   XC Correction:                    0.002     0.002   0.0% |
  Calculate atomic Hamiltonians:     0.284     0.284   0.1% |
  Communicate:                       0.018     0.018   0.0% |
  Poisson:                           0.056     0.056   0.0% |
  XC 3D grid:                        4.823     4.823   2.3% ||
 Orthonormalize:                     0.432     0.063   0.0% |
  calc_s_matrix:                     0.111     0.111   0.1% |
  inverse-cholesky:                  0.081     0.081   0.0% |
  projections:                       0.143     0.143   0.1% |
  rotate_psi_s:                      0.035     0.035   0.0% |
Set symmetry:                        4.813     4.813   2.3% ||
Other:                               9.763     9.763   4.6% |-|
-----------------------------------------------------------
Total:                                       210.577 100.0%

Memory usage: 325.69 MiB
Date: Sun Feb 19 18:39:45 2023
