
  ___ ___ ___ _ _ _  
 |   |   |_  | | | | 
 | | | | | . | | | | 
 |__ |  _|___|_____|  22.8.0
 |___|_|             

User:   afonso@afonso-OMEN-by-HP-Laptop-15-ce0xx
Date:   Mon Feb 20 16:17:20 2023
Arch:   x86_64
Pid:    5159
CWD:    /home/afonso/Desktop/Chalmers/TIF_320/Assignment4/Task3
Python: 3.8.10
gpaw:   /home/afonso/Desktop/Chalmers/TIF_320/TIF_320_venv/lib/python3.8/site-packages/gpaw
_gpaw:  /home/afonso/Desktop/Chalmers/TIF_320/TIF_320_venv/lib/python3.8/site-packages/
        _gpaw.cpython-38-x86_64-linux-gnu.so
ase:    /home/afonso/Desktop/Chalmers/TIF_320/TIF_320_venv/lib/python3.8/site-packages/ase (version 3.22.1)
numpy:  /home/afonso/Desktop/Chalmers/TIF_320/TIF_320_venv/lib/python3.8/site-packages/numpy (version 1.24.1)
scipy:  /home/afonso/Desktop/Chalmers/TIF_320/TIF_320_venv/lib/python3.8/site-packages/scipy (version 1.10.0)
libxc:  4.3.4
units:  Angstrom and eV
cores: 1
OpenMP: False
OMP_NUM_THREADS: 1

Input parameters:
  kpts: [4 4 1]
  mode: {ecut: 350.0,
         name: pw}
  occupations: {fixmagmom: False,
                name: fermi-dirac,
                width: 0.1}
  random: True
  xc: PBE

System changes: positions, numbers, cell, pbc, initial_charges, initial_magmoms 

Initialize ...

species:
  Cu:
    name: Copper
    id: f1c4d45d90492f1bbfdcb091e8418fdf
    Z: 29.0
    valence: 11
    core: 18
    charge: 0.0
    file: /home/afonso/Desktop/Chalmers/TIF_320/GPAW_Datasets/gpaw-setups-0.9.20000/Cu.PBE.gz
    compensation charges: {type: gauss,
                           rc: 0.33,
                           lmax: 2}
    cutoffs: {filter: 2.06,
              core: 2.43}
    valence states:
      #              energy  rcut
      - 4s(1.00)    -4.609   1.164
      - 4p(0.00)    -0.698   1.164
      - 3d(10.00)    -5.039   1.058
      -  s          22.603   1.164
      -  p          26.513   1.164
      -  d          22.172   1.058
  
    # Using partial waves for Cu as LCAO basis

Reference energy: -1215579.199710  # eV

Spin-paired calculation

Convergence criteria:
 Maximum [total energy] change in last 3 cyles: 0.0005 eV / electron
 Maximum integral of absolute [dens]ity change: 0.0001 electrons / valence electron
 Maximum integral of absolute [eigenst]ate change: 4e-08 eV^2 / valence electron
 Maximum number of scf [iter]ations: 333
 (Square brackets indicate name in SCF output, whereas a 'c' in
 the SCF output indicates the quantity has converged.)

Symmetries present (total): 6

  ( 1  0  0)  ( 1 -1  0)  ( 0  1  0)  ( 0 -1  0)  (-1  1  0)  (-1  0  0)
  ( 0  1  0)  ( 0 -1  0)  ( 1  0  0)  ( 1 -1  0)  (-1  0  0)  (-1  1  0)
  ( 0  0  1)  ( 0  0  1)  ( 0  0  1)  ( 0  0  1)  ( 0  0  1)  ( 0  0  1)
Note: your k-points are not as symmetric as your crystal!

16 k-points: 4 x 4 x 1 Monkhorst-Pack grid
6 k-points in the irreducible part of the Brillouin zone
       k-points in crystal coordinates                weights
   0:     0.12500000   -0.12500000    0.00000000          2/16
   1:     0.12500000    0.12500000    0.00000000          2/16
   2:     0.37500000   -0.37500000    0.00000000          2/16
   3:     0.37500000   -0.12500000    0.00000000          4/16
   4:     0.37500000    0.12500000    0.00000000          4/16
   5:     0.37500000    0.37500000    0.00000000          2/16

Wave functions: Plane wave expansion
  Cutoff energy: 350.000 eV
  Number of coefficients (min, max): 12082, 12139
  Pulay-stress correction: 0.000000 eV/Ang^3 (de/decut=0.000000)
  Using Numpy's FFT
  ScaLapack parameters: grid=1x1, blocksize=None
  Wavefunction extrapolation:
    Improved wavefunction reuse through dual PAW basis 

Occupation numbers: Fermi-Dirac:
  width: 0.1000  # eV
 

Eigensolver
   Davidson(niter=2) 

Densities:
  Coarse grid: 35*35*70 grid
  Fine grid: 70*70*140 grid
  Total Charge: 0.000000 

Density mixing:
  Method: separate
  Backend: pulay
  Linear mixing parameter: 0.05
  old densities: 5
  Damping of long wavelength oscillations: 50 

Hamiltonian:
  XC and Coulomb potentials evaluated on a 70*70*140 grid
  Using the PBE Exchange-Correlation functional
  External potential:
    NoExternalPotential
 

XC parameters: PBE with 2 nearest neighbor stencil

Memory estimate:
  Process memory now: 153.87 MiB
  Calculator: 311.89 MiB
    Density: 36.35 MiB
      Arrays: 17.01 MiB
      Localized functions: 12.79 MiB
      Mixer: 6.54 MiB
    Hamiltonian: 11.38 MiB
      Arrays: 11.12 MiB
      XC: 0.00 MiB
      Poisson: 0.00 MiB
      vbar: 0.26 MiB
    Wavefunctions: 264.16 MiB
      Arrays psit_nG: 203.38 MiB
      Eigensolver: 39.94 MiB
      Projections: 8.14 MiB
      Projectors: 8.32 MiB
      PW-descriptor: 4.38 MiB

Total number of cores used: 1

Number of atoms: 27
Number of atomic orbitals: 243
Number of bands in calculation: 183
Number of valence electrons: 297
Bands to converge: occupied

... initialized

Initializing position-dependent things.

Density initialized from atomic densities
Creating initial wave functions:
  183 bands from LCAO basis set

                                          
                                          
                                          
                                          
                                          
                Cu    Cu     Cu           
            Cu   CCu   CCu    Cu          
       Cu    Cu     Cu                    
             Cu    Cu    Cu               
        Cu    Cu    CCu   Cu    Cu        
                                          
               Cu     Cu    Cu            
           Cu    Cu    Cu                 
                                          
                                          
                                          
                                          

Positions:
   0 Cu     1.271732    0.734235    6.000000    ( 0.0000,  0.0000,  0.0000)
   1 Cu     3.815195    0.734235    6.000000    ( 0.0000,  0.0000,  0.0000)
   2 Cu     6.358658    0.734235    6.000000    ( 0.0000,  0.0000,  0.0000)
   3 Cu     2.543463    2.936938    6.000000    ( 0.0000,  0.0000,  0.0000)
   4 Cu     5.086926    2.936938    6.000000    ( 0.0000,  0.0000,  0.0000)
   5 Cu     7.630389    2.936938    6.000000    ( 0.0000,  0.0000,  0.0000)
   6 Cu     3.815195    5.139642    6.000000    ( 0.0000,  0.0000,  0.0000)
   7 Cu     6.358658    5.139642    6.000000    ( 0.0000,  0.0000,  0.0000)
   8 Cu     8.902121    5.139642    6.000000    ( 0.0000,  0.0000,  0.0000)
   9 Cu    -0.000000    1.468469    8.076729    ( 0.0000,  0.0000,  0.0000)
  10 Cu     2.543463    1.468469    8.076729    ( 0.0000,  0.0000,  0.0000)
  11 Cu     5.086926    1.468469    8.076729    ( 0.0000,  0.0000,  0.0000)
  12 Cu     1.271732    3.671173    8.076729    ( 0.0000,  0.0000,  0.0000)
  13 Cu     3.815195    3.671173    8.076729    ( 0.0000,  0.0000,  0.0000)
  14 Cu     6.358658    3.671173    8.076729    ( 0.0000,  0.0000,  0.0000)
  15 Cu     2.543463    5.873876    8.076729    ( 0.0000,  0.0000,  0.0000)
  16 Cu     5.086926    5.873876    8.076729    ( 0.0000,  0.0000,  0.0000)
  17 Cu     7.630389    5.873876    8.076729    ( 0.0000,  0.0000,  0.0000)
  18 Cu     0.000000    0.000000   10.153458    ( 0.0000,  0.0000,  0.0000)
  19 Cu     2.543463    0.000000   10.153458    ( 0.0000,  0.0000,  0.0000)
  20 Cu     5.086926    0.000000   10.153458    ( 0.0000,  0.0000,  0.0000)
  21 Cu     1.271732    2.202704   10.153458    ( 0.0000,  0.0000,  0.0000)
  22 Cu     3.815195    2.202704   10.153458    ( 0.0000,  0.0000,  0.0000)
  23 Cu     6.358658    2.202704   10.153458    ( 0.0000,  0.0000,  0.0000)
  24 Cu     2.543463    4.405407   10.153458    ( 0.0000,  0.0000,  0.0000)
  25 Cu     5.086926    4.405407   10.153458    ( 0.0000,  0.0000,  0.0000)
  26 Cu     7.630389    4.405407   10.153458    ( 0.0000,  0.0000,  0.0000)

Unit cell:
           periodic     x           y           z      points  spacing
  1. axis:    yes    7.630389    0.000000    0.000000    35     0.1888
  2. axis:    yes    3.815195    6.608111    0.000000    35     0.1888
  3. axis:    no     0.000000    0.000000   16.153458    70     0.2308

  Lengths:   7.630389   7.630389  16.153458
  Angles:   90.000000  90.000000  60.000000

Effective grid spacing dv^(1/3) = 0.2118

     iter     time        total  log10-change:
                         energy  eigst   dens
iter:   1 16:19:04  -107.104588
iter:   2 16:19:50   -98.385667  -1.74  -1.19
iter:   3 16:20:35   -86.496927  -0.60  -1.27
iter:   4 16:21:17   -85.322833  -2.37  -1.74
iter:   5 16:22:01   -85.099817  -1.97  -1.75
iter:   6 16:22:44   -92.407415  -1.04  -1.92
iter:   7 16:23:27   -85.263034  -1.04  -1.51
iter:   8 16:24:08   -84.938876  -3.02  -2.33
iter:   9 16:25:02   -84.778837  -2.63  -2.50
iter:  10 16:25:51   -84.764511  -3.66  -2.79
iter:  11 16:26:40   -84.790043c -3.51  -2.94
iter:  12 16:27:25   -84.764574c -4.11  -2.93
iter:  13 16:28:05   -84.761692c -4.58  -3.29
iter:  14 16:28:48   -84.762118c -5.44  -3.46
iter:  15 16:29:36   -84.761183c -5.34  -3.63
iter:  16 16:30:19   -84.760950c -5.45  -3.86
iter:  17 16:30:59   -84.760987c -6.39  -3.91
iter:  18 16:31:38   -84.760938c -6.34  -3.92
iter:  19 16:32:18   -84.760959c -6.76  -4.24c
iter:  20 16:32:58   -84.760952c -7.35  -4.67c
iter:  21 16:33:39   -84.760952c -7.60c -4.73c

Converged after 21 iterations.

Dipole moment: (-0.188998, -0.109118, -0.000002) |e|*Ang

Energy contributions relative to reference atoms: (reference = -1215579.199710)

Kinetic:       -338.529060
Potential:     +257.679574
External:        +0.000000
XC:             -13.693195
Entropy (-ST):   -0.276708
Local:           +9.920083
--------------------------
Free energy:    -84.899306
Extrapolated:   -84.760952

Showing only first 2 kpts
 Kpt  Band  Eigenvalues  Occupancy
  0   146     -0.65437    1.99989
  0   147     -0.65437    1.99989
  0   148     -0.01185    1.93516
  0   149     -0.01185    1.93516

  1   146     -1.03512    2.00000
  1   147     -0.63716    1.99987
  1   148     -0.63716    1.99987
  1   149     -0.46057    1.99925


Fermi level: 0.32775

No gap

Forces in eV/Ang:
  0 Cu    0.00001    0.00000   -0.09524
  1 Cu    0.00000    0.00001   -0.09524
  2 Cu   -0.00001    0.00000   -0.09524
  3 Cu    0.00001   -0.00000   -0.09524
  4 Cu   -0.00001   -0.00000   -0.09524
  5 Cu    0.00000   -0.00001   -0.09525
  6 Cu    0.00000   -0.00001   -0.09524
  7 Cu   -0.00001    0.00001   -0.09525
  8 Cu    0.00001    0.00001   -0.09525
  9 Cu    0.00000    0.00000    0.00001
 10 Cu   -0.00002   -0.00001   -0.00001
 11 Cu    0.00002   -0.00001   -0.00001
 12 Cu   -0.00001    0.00000    0.00000
 13 Cu    0.00000    0.00002   -0.00001
 14 Cu    0.00001    0.00000    0.00000
 15 Cu   -0.00000   -0.00000    0.00001
 16 Cu    0.00000   -0.00000    0.00001
 17 Cu    0.00000   -0.00001    0.00000
 18 Cu    0.00000    0.00000    0.09524
 19 Cu   -0.00003    0.00000    0.09524
 20 Cu    0.00003    0.00000    0.09524
 21 Cu   -0.00001   -0.00003    0.09524
 22 Cu   -0.00000    0.00000    0.09524
 23 Cu    0.00001   -0.00003    0.09524
 24 Cu    0.00002    0.00003    0.09524
 25 Cu   -0.00002    0.00003    0.09524
 26 Cu    0.00000    0.00000    0.09524

System changes: positions 

Initializing position-dependent things.

Density initialized from wave functions
                                          
                                          
                                          
                                          
                                          
                Cu    Cu     Cu           
            Cu   CCu   CCu    Cu          
       Cu    Cu     Cu                    
             Cu    Cu    Cu               
        Cu    Cu    CCu   Cu    Cu        
                                          
               Cu     Cu    Cu            
           Cu    Cu    Cu                 
                                          
                                          
                                          
                                          

Positions:
   0 Cu     1.271732    0.734235    5.998639    ( 0.0000,  0.0000,  0.0000)
   1 Cu     3.815195    0.734235    5.998639    ( 0.0000,  0.0000,  0.0000)
   2 Cu     6.358658    0.734235    5.998639    ( 0.0000,  0.0000,  0.0000)
   3 Cu     2.543463    2.936938    5.998639    ( 0.0000,  0.0000,  0.0000)
   4 Cu     5.086926    2.936938    5.998639    ( 0.0000,  0.0000,  0.0000)
   5 Cu     7.630389    2.936938    5.998639    ( 0.0000,  0.0000,  0.0000)
   6 Cu     3.815195    5.139642    5.998639    ( 0.0000,  0.0000,  0.0000)
   7 Cu     6.358658    5.139642    5.998639    ( 0.0000,  0.0000,  0.0000)
   8 Cu     8.902121    5.139642    5.998639    ( 0.0000,  0.0000,  0.0000)
   9 Cu    -0.000000    1.468469    8.076729    ( 0.0000,  0.0000,  0.0000)
  10 Cu     2.543463    1.468469    8.076729    ( 0.0000,  0.0000,  0.0000)
  11 Cu     5.086926    1.468469    8.076729    ( 0.0000,  0.0000,  0.0000)
  12 Cu     1.271731    3.671173    8.076729    ( 0.0000,  0.0000,  0.0000)
  13 Cu     3.815195    3.671173    8.076729    ( 0.0000,  0.0000,  0.0000)
  14 Cu     6.358658    3.671173    8.076729    ( 0.0000,  0.0000,  0.0000)
  15 Cu     2.543463    5.873876    8.076729    ( 0.0000,  0.0000,  0.0000)
  16 Cu     5.086926    5.873876    8.076729    ( 0.0000,  0.0000,  0.0000)
  17 Cu     7.630389    5.873876    8.076729    ( 0.0000,  0.0000,  0.0000)
  18 Cu     0.000000    0.000000   10.154818    ( 0.0000,  0.0000,  0.0000)
  19 Cu     2.543463    0.000000   10.154818    ( 0.0000,  0.0000,  0.0000)
  20 Cu     5.086927    0.000000   10.154818    ( 0.0000,  0.0000,  0.0000)
  21 Cu     1.271731    2.202703   10.154818    ( 0.0000,  0.0000,  0.0000)
  22 Cu     3.815195    2.202704   10.154818    ( 0.0000,  0.0000,  0.0000)
  23 Cu     6.358658    2.202703   10.154818    ( 0.0000,  0.0000,  0.0000)
  24 Cu     2.543463    4.405408   10.154818    ( 0.0000,  0.0000,  0.0000)
  25 Cu     5.086926    4.405408   10.154818    ( 0.0000,  0.0000,  0.0000)
  26 Cu     7.630389    4.405407   10.154818    ( 0.0000,  0.0000,  0.0000)

Unit cell:
           periodic     x           y           z      points  spacing
  1. axis:    yes    7.630389    0.000000    0.000000    35     0.1888
  2. axis:    yes    3.815195    6.608111    0.000000    35     0.1888
  3. axis:    no     0.000000    0.000000   16.153458    70     0.2308

  Lengths:   7.630389   7.630389  16.153458
  Angles:   90.000000  90.000000  60.000000

Effective grid spacing dv^(1/3) = 0.2118

     iter     time        total  log10-change:
                         energy  eigst   dens
iter:   1 16:34:33   -84.767084  -4.27
iter:   2 16:35:17   -84.764612  -5.46  -3.23
iter:   3 16:36:00   -84.763124c -4.70  -3.40
iter:   4 16:36:39   -84.763088c -6.67  -4.13c
iter:   5 16:37:20   -84.763045c -6.38  -4.16c
iter:   6 16:38:11   -84.763076c -6.72  -4.34c
iter:   7 16:39:03   -84.763059c -6.80  -4.59c
iter:   8 16:39:47   -84.763058c -8.38c -4.89c

Converged after 8 iterations.

Dipole moment: (-0.188774, -0.108989, -0.000002) |e|*Ang

Energy contributions relative to reference atoms: (reference = -1215579.199710)

Kinetic:       -339.295626
Potential:     +258.329152
External:        +0.000000
XC:             -13.581696
Entropy (-ST):   -0.276866
Local:           +9.923544
--------------------------
Free energy:    -84.901491
Extrapolated:   -84.763058

Showing only first 2 kpts
 Kpt  Band  Eigenvalues  Occupancy
  0   146     -0.65563    1.99989
  0   147     -0.65563    1.99989
  0   148     -0.01287    1.93509
  0   149     -0.01287    1.93509

  1   146     -1.03651    2.00000
  1   147     -0.63845    1.99987
  1   148     -0.63845    1.99987
  1   149     -0.46179    1.99925


Fermi level: 0.32662

No gap

Forces in eV/Ang:
  0 Cu   -0.00000   -0.00000   -0.08700
  1 Cu    0.00000    0.00001   -0.08702
  2 Cu    0.00000   -0.00000   -0.08700
  3 Cu    0.00001   -0.00001   -0.08702
  4 Cu   -0.00001   -0.00001   -0.08702
  5 Cu    0.00000   -0.00002   -0.08699
  6 Cu    0.00000    0.00001   -0.08700
  7 Cu   -0.00001    0.00001   -0.08699
  8 Cu    0.00001    0.00001   -0.08699
  9 Cu    0.00000    0.00000    0.00001
 10 Cu   -0.00001   -0.00001   -0.00002
 11 Cu    0.00001   -0.00001   -0.00002
 12 Cu   -0.00001    0.00000    0.00001
 13 Cu    0.00000    0.00001   -0.00002
 14 Cu    0.00001    0.00000    0.00001
 15 Cu   -0.00000   -0.00000    0.00001
 16 Cu    0.00000   -0.00000    0.00001
 17 Cu    0.00000   -0.00001    0.00001
 18 Cu    0.00000    0.00000    0.08701
 19 Cu   -0.00002   -0.00000    0.08701
 20 Cu    0.00002   -0.00000    0.08701
 21 Cu   -0.00001   -0.00001    0.08701
 22 Cu    0.00000    0.00000    0.08700
 23 Cu    0.00001   -0.00001    0.08701
 24 Cu    0.00001    0.00002    0.08701
 25 Cu   -0.00001    0.00002    0.08701
 26 Cu    0.00000    0.00000    0.08702

System changes: positions 

Initializing position-dependent things.

Density initialized from wave functions
                                          
                                          
                                          
                                          
                                          
                Cu    Cu     Cu           
            Cu   CCu   CCu    Cu          
       Cu    Cu     Cu                    
             Cu    Cu    Cu               
        Cu    Cu    CCu   Cu    Cu        
                                          
               Cu     Cu    Cu            
           Cu    Cu    Cu                 
                                          
                                          
                                          
                                          

Positions:
   0 Cu     1.271731    0.734234    5.984267    ( 0.0000,  0.0000,  0.0000)
   1 Cu     3.815195    0.734237    5.984264    ( 0.0000,  0.0000,  0.0000)
   2 Cu     6.358658    0.734234    5.984267    ( 0.0000,  0.0000,  0.0000)
   3 Cu     2.543465    2.936937    5.984264    ( 0.0000,  0.0000,  0.0000)
   4 Cu     5.086924    2.936937    5.984264    ( 0.0000,  0.0000,  0.0000)
   5 Cu     7.630389    2.936936    5.984268    ( 0.0000,  0.0000,  0.0000)
   6 Cu     3.815195    5.139643    5.984267    ( 0.0000,  0.0000,  0.0000)
   7 Cu     6.358655    5.139643    5.984268    ( 0.0000,  0.0000,  0.0000)
   8 Cu     8.902123    5.139643    5.984268    ( 0.0000,  0.0000,  0.0000)
   9 Cu    -0.000000    1.468469    8.076731    ( 0.0000,  0.0000,  0.0000)
  10 Cu     2.543461    1.468468    8.076725    ( 0.0000,  0.0000,  0.0000)
  11 Cu     5.086928    1.468468    8.076725    ( 0.0000,  0.0000,  0.0000)
  12 Cu     1.271730    3.671173    8.076731    ( 0.0000,  0.0000,  0.0000)
  13 Cu     3.815195    3.671175    8.076725    ( 0.0000,  0.0000,  0.0000)
  14 Cu     6.358659    3.671173    8.076731    ( 0.0000,  0.0000,  0.0000)
  15 Cu     2.543463    5.873876    8.076731    ( 0.0000,  0.0000,  0.0000)
  16 Cu     5.086926    5.873876    8.076731    ( 0.0000,  0.0000,  0.0000)
  17 Cu     7.630389    5.873875    8.076731    ( 0.0000,  0.0000,  0.0000)
  18 Cu     0.000000   -0.000000   10.169192    ( 0.0000,  0.0000,  0.0000)
  19 Cu     2.543460   -0.000000   10.169191    ( 0.0000,  0.0000,  0.0000)
  20 Cu     5.086929   -0.000000   10.169191    ( 0.0000,  0.0000,  0.0000)
  21 Cu     1.271730    2.202701   10.169191    ( 0.0000,  0.0000,  0.0000)
  22 Cu     3.815195    2.202704   10.169191    ( 0.0000,  0.0000,  0.0000)
  23 Cu     6.358660    2.202701   10.169191    ( 0.0000,  0.0000,  0.0000)
  24 Cu     2.543464    4.405410   10.169191    ( 0.0000,  0.0000,  0.0000)
  25 Cu     5.086925    4.405410   10.169191    ( 0.0000,  0.0000,  0.0000)
  26 Cu     7.630389    4.405407   10.169193    ( 0.0000,  0.0000,  0.0000)

Unit cell:
           periodic     x           y           z      points  spacing
  1. axis:    yes    7.630389    0.000000    0.000000    35     0.1888
  2. axis:    yes    3.815195    6.608111    0.000000    35     0.1888
  3. axis:    no     0.000000    0.000000   16.153458    70     0.2308

  Lengths:   7.630389   7.630389  16.153458
  Angles:   90.000000  90.000000  60.000000

Effective grid spacing dv^(1/3) = 0.2118

     iter     time        total  log10-change:
                         energy  eigst   dens
iter:   1 16:40:43   -85.127152  -2.23
iter:   2 16:41:25   -84.908615  -3.47  -2.19
