
  ___ ___ ___ _ _ _  
 |   |   |_  | | | | 
 | | | | | . | | | | 
 |__ |  _|___|_____|  22.8.0
 |___|_|             

User:   afonso@afonso-OMEN-by-HP-Laptop-15-ce0xx
Date:   Wed Feb  1 19:42:59 2023
Arch:   x86_64
Pid:    13210
CWD:    /home/afonso/Desktop/Chalmers/TIF_320/Task3
Python: 3.8.10
gpaw:   /home/afonso/Desktop/Chalmers/TIF_320/TIF_320_venv/lib/python3.8/site-packages/gpaw
_gpaw:  /home/afonso/Desktop/Chalmers/TIF_320/TIF_320_venv/lib/python3.8/site-packages/
        _gpaw.cpython-38-x86_64-linux-gnu.so
ase:    /home/afonso/Desktop/Chalmers/TIF_320/TIF_320_venv/lib/python3.8/site-packages/ase (version 3.22.1)
numpy:  /home/afonso/Desktop/Chalmers/TIF_320/TIF_320_venv/lib/python3.8/site-packages/numpy (version 1.24.1)
scipy:  /home/afonso/Desktop/Chalmers/TIF_320/TIF_320_venv/lib/python3.8/site-packages/scipy (version 1.10.0)
libxc:  4.3.4
units:  Angstrom and eV
cores: 1
OpenMP: False
OMP_NUM_THREADS: 1

Input parameters:
  basis: dzp
  h: 0.25
  mode: lcao
  nbands: 10
  occupations: {fixmagmom: False,
                name: fermi-dirac,
                width: 0.05}
  setups: {Na: 1}

System changes: positions, numbers, cell, pbc, initial_charges, initial_magmoms 

Initialize ...

species:
  Na:
    name: Sodium
    id: fa5c50181d04022fed15b2593599c257
    Z: 11.0
    valence: 1
    core: 10
    charge: 0.0
    file: /home/afonso/Desktop/Chalmers/TIF_320/GPAW_Datasets/gpaw-setups-0.9.20000/Na.1.LDA.gz
    compensation charges: {type: gauss,
                           rc: 0.43,
                           lmax: 2}
    cutoffs: {filter: 2.36,
              core: 3.60}
    valence states:
      #              energy  rcut
      - 3s(1.00)    -2.819   1.349
      - 3p(0.00)    -0.774   1.349
      -  s          24.392   1.349
  
    # LCAO basis set for Na:
    #   Name: 1.dzp
    #   File: /home/afonso/Desktop/Chalmers/TIF_320/GPAW_Datasets/gpaw-setups-0.9.20000/Na.1.dzp.basis.gz
    #   Number of radial functions: 3
    #   Number of spherical harmonics: 5
    #     l=0, rc=11.7656 Bohr: 3s-sz confined orbital
    #     l=0, rc=7.1094 Bohr: 3s-dz split-valence wave
    #     l=1, rc=11.7656 Bohr: p-type Gaussian polarization
    #   Number of RI-basis functions 0

Reference energy: -26392.251304  # eV

Spin-paired calculation

Convergence criteria:
 Maximum [total energy] change in last 3 cyles: 0.0005 eV / electron
 Maximum integral of absolute [dens]ity change: 0.0001 electrons / valence electron
 Maximum integral of absolute [eigenst]ate change: 4e-08 eV^2 / valence electron
 Maximum number of scf [iter]ations: 333
 (Square brackets indicate name in SCF output, whereas a 'c' in
 the SCF output indicates the quantity has converged.)

Symmetries present (total): 48

  ( 1  0  0)  ( 1  0  0)  ( 1  0  0)  ( 1  0  0)  ( 1  0  0)  ( 1  0  0)
  ( 0  1  0)  ( 0  1  0)  ( 0  0  1)  ( 0  0  1)  ( 0  0 -1)  ( 0  0 -1)
  ( 0  0  1)  ( 0  0 -1)  ( 0  1  0)  ( 0 -1  0)  ( 0  1  0)  ( 0 -1  0)

  ( 1  0  0)  ( 1  0  0)  ( 0  1  0)  ( 0  1  0)  ( 0  1  0)  ( 0  1  0)
  ( 0 -1  0)  ( 0 -1  0)  ( 1  0  0)  ( 1  0  0)  ( 0  0  1)  ( 0  0  1)
  ( 0  0  1)  ( 0  0 -1)  ( 0  0  1)  ( 0  0 -1)  ( 1  0  0)  (-1  0  0)

  ( 0  1  0)  ( 0  1  0)  ( 0  1  0)  ( 0  1  0)  ( 0  0  1)  ( 0  0  1)
  ( 0  0 -1)  ( 0  0 -1)  (-1  0  0)  (-1  0  0)  ( 1  0  0)  ( 1  0  0)
  ( 1  0  0)  (-1  0  0)  ( 0  0  1)  ( 0  0 -1)  ( 0  1  0)  ( 0 -1  0)

  ( 0  0  1)  ( 0  0  1)  ( 0  0  1)  ( 0  0  1)  ( 0  0  1)  ( 0  0  1)
  ( 0  1  0)  ( 0  1  0)  ( 0 -1  0)  ( 0 -1  0)  (-1  0  0)  (-1  0  0)
  ( 1  0  0)  (-1  0  0)  ( 1  0  0)  (-1  0  0)  ( 0  1  0)  ( 0 -1  0)

  ( 0  0 -1)  ( 0  0 -1)  ( 0  0 -1)  ( 0  0 -1)  ( 0  0 -1)  ( 0  0 -1)
  ( 1  0  0)  ( 1  0  0)  ( 0  1  0)  ( 0  1  0)  ( 0 -1  0)  ( 0 -1  0)
  ( 0  1  0)  ( 0 -1  0)  ( 1  0  0)  (-1  0  0)  ( 1  0  0)  (-1  0  0)

  ( 0  0 -1)  ( 0  0 -1)  ( 0 -1  0)  ( 0 -1  0)  ( 0 -1  0)  ( 0 -1  0)
  (-1  0  0)  (-1  0  0)  ( 1  0  0)  ( 1  0  0)  ( 0  0  1)  ( 0  0  1)
  ( 0  1  0)  ( 0 -1  0)  ( 0  0  1)  ( 0  0 -1)  ( 1  0  0)  (-1  0  0)

  ( 0 -1  0)  ( 0 -1  0)  ( 0 -1  0)  ( 0 -1  0)  (-1  0  0)  (-1  0  0)
  ( 0  0 -1)  ( 0  0 -1)  (-1  0  0)  (-1  0  0)  ( 0  1  0)  ( 0  1  0)
  ( 1  0  0)  (-1  0  0)  ( 0  0  1)  ( 0  0 -1)  ( 0  0  1)  ( 0  0 -1)

  (-1  0  0)  (-1  0  0)  (-1  0  0)  (-1  0  0)  (-1  0  0)  (-1  0  0)
  ( 0  0  1)  ( 0  0  1)  ( 0  0 -1)  ( 0  0 -1)  ( 0 -1  0)  ( 0 -1  0)
  ( 0  1  0)  ( 0 -1  0)  ( 0  1  0)  ( 0 -1  0)  ( 0  0  1)  ( 0  0 -1)

1 k-point (Gamma)
1 k-point in the irreducible part of the Brillouin zone
       k-points in crystal coordinates                weights
   0:     0.00000000    0.00000000    0.00000000          1/1

Wave functions: LCAO
  Diagonalizer: Serial LAPACK
  Atomic Correction: dense with blas
  Data-type: float
 

Occupation numbers: Fermi-Dirac:
  width: 0.0500  # eV
 

Eigensolver
   LCAO using direct dense diagonalizer 

Densities:
  Coarse grid: 64*64*64 grid
  Fine grid: 128*128*128 grid
  Total Charge: 0.000000 

Density mixing:
  Method: separate
  Backend: pulay
  Linear mixing parameter: 0.25
  old densities: 3
  Damping of long wavelength oscillations: 1  # (no daming) 

Hamiltonian:
  XC and Coulomb potentials evaluated on a 128*128*128 grid
  Using the LDA Exchange-Correlation functional
  Interpolation: tri-quintic (5. degree polynomial)
  Poisson solver: FastPoissonSolver using
    Stencil: 6*3+1=19 point O(h^6) finite-difference Laplacian
    FFT axes: []
    FST axes: [0, 1, 2]
 

Memory estimate:
  Process memory now: 299.22 MiB
  Calculator: 127.06 MiB
    Density: 80.09 MiB
      Arrays: 50.70 MiB
      Localized functions: 17.94 MiB
      Mixer: 11.45 MiB
    Hamiltonian: 34.46 MiB
      Arrays: 33.16 MiB
      XC: 0.00 MiB
      Poisson: 0.00 MiB
      vbar: 1.29 MiB
    Wavefunctions: 12.52 MiB
      C [qnM]: 0.00 MiB
      S, T [2 x qmm]: 0.01 MiB
      P [aqMi]: 0.00 MiB
      BasisFunctions: 12.50 MiB
      Eigensolver: 0.00 MiB

Total number of cores used: 1

Number of atoms: 6
Number of atomic orbitals: 30
Number of bands in calculation: 10
Number of valence electrons: 6
Bands to converge: occupied

... initialized

Initializing position-dependent things.

Density initialized from atomic densities
           .--------------------------------------.  
          /|                                      |  
         / |                                      |  
        /  |                                      |  
       /   |                                      |  
      /    |                                      |  
     /     |                                      |  
    /      |                                      |  
   /       |                                      |  
  /        |                                      |  
 *         |                                      |  
 |         |                                      |  
 |         |              Na                      |  
 |         |               Na                     |  
 |         |                                      |  
 |         |       Na           Na                |  
 |         |                                      |  
 |         |            Na                        |  
 |         |              Na                      |  
 |         |                                      |  
 |         .--------------------------------------.  
 |        /                                      /   
 |       /                                      /    
 |      /                                      /     
 |     /                                      /      
 |    /                                      /       
 |   /                                      /        
 |  /                                      /         
 | /                                      /          
 |/                                      /           
 *--------------------------------------*            

Positions:
   0 Na    10.500000    8.000000    8.000000    ( 0.0000,  0.0000,  0.0000)
   1 Na     5.500000    8.000000    8.000000    ( 0.0000,  0.0000,  0.0000)
   2 Na     8.000000   10.500000    8.000000    ( 0.0000,  0.0000,  0.0000)
   3 Na     8.000000    5.500000    8.000000    ( 0.0000,  0.0000,  0.0000)
   4 Na     8.000000    8.000000   10.500000    ( 0.0000,  0.0000,  0.0000)
   5 Na     8.000000    8.000000    5.500000    ( 0.0000,  0.0000,  0.0000)

Unit cell:
           periodic     x           y           z      points  spacing
  1. axis:    no    16.000000    0.000000    0.000000    64     0.2500
  2. axis:    no     0.000000   16.000000    0.000000    64     0.2500
  3. axis:    no     0.000000    0.000000   16.000000    64     0.2500

  Lengths:  16.000000  16.000000  16.000000
  Angles:   90.000000  90.000000  90.000000

Effective grid spacing dv^(1/3) = 0.2500

     iter     time        total  log10-change:
                         energy  eigst   dens
iter:   1 19:43:01    -4.263257       c
iter:   2 19:43:02    -4.183224       c -0.79
iter:   3 19:43:04    -4.143454       c -1.01
iter:   4 19:43:05    -4.143034       c -1.70
iter:   5 19:43:06    -4.143030c      c -2.98
iter:   6 19:43:08    -4.143030c      c -3.51
iter:   7 19:43:09    -4.143030c      c -3.64
iter:   8 19:43:10    -4.143030c      c -4.52c

Converged after 8 iterations.

Dipole moment: (0.000000, 0.000000, 0.000000) |e|*Ang

Energy contributions relative to reference atoms: (reference = -26392.251304)

Kinetic:        +17.389519
Potential:      -14.876515
External:        +0.000000
XC:              -6.587887
Entropy (-ST):   -0.190954
Local:           +0.027330
--------------------------
Free energy:     -4.238507
Extrapolated:    -4.143030

 Band  Eigenvalues  Occupancy
    0     -4.71035    2.00000
    1     -2.91962    1.33333
    2     -2.91962    1.33333
    3     -2.91962    1.33333
    4     -1.44864    0.00000
    5     -1.44864    0.00000
    6      1.20846    0.00000
    7      2.19324    0.00000
    8      2.19324    0.00000
    9      2.19324    0.00000

Fermi level: -2.88497

Gap: 1.471 eV
Transition (v -> c):
  (s=0, k=0, n=3, [0.00, 0.00, 0.00]) -> (s=0, k=0, n=4, [0.00, 0.00, 0.00])

Forces in eV/Ang:
  0 Na   -0.07374   -0.00000   -0.00000
  1 Na    0.07374    0.00000    0.00000
  2 Na   -0.00000   -0.07374    0.00000
  3 Na    0.00000    0.07374    0.00000
  4 Na    0.00000   -0.00000   -0.07374
  5 Na    0.00000   -0.00000    0.07374

System changes: positions 

Initializing position-dependent things.

Density initialized from wave functions
           .--------------------------------------.  
          /|                                      |  
         / |                                      |  
        /  |                                      |  
       /   |                                      |  
      /    |                                      |  
     /     |                                      |  
    /      |                                      |  
   /       |                                      |  
  /        |                                      |  
 *         |                                      |  
 |         |                                      |  
 |         |              Na                      |  
 |         |                                      |  
 |         |               Na                     |  
 |         |        Na         Na                 |  
 |         |            Na                        |  
 |         |                                      |  
 |         |              Na                      |  
 |         |                                      |  
 |         .--------------------------------------.  
 |        /                                      /   
 |       /                                      /    
 |      /                                      /     
 |     /                                      /      
 |    /                                      /       
 |   /                                      /        
 |  /                                      /         
 | /                                      /          
 |/                                      /           
 *--------------------------------------*            

Positions:
   0 Na    10.336689    8.000000    8.000000    ( 0.0000,  0.0000,  0.0000)
   1 Na     5.663311    8.000000    8.000000    ( 0.0000,  0.0000,  0.0000)
   2 Na     8.000000   10.336689    8.000000    ( 0.0000,  0.0000,  0.0000)
   3 Na     8.000000    5.663311    8.000000    ( 0.0000,  0.0000,  0.0000)
   4 Na     8.000000    8.000000   10.336689    ( 0.0000,  0.0000,  0.0000)
   5 Na     8.000000    8.000000    5.663311    ( 0.0000,  0.0000,  0.0000)

Unit cell:
           periodic     x           y           z      points  spacing
  1. axis:    no    16.000000    0.000000    0.000000    64     0.2500
  2. axis:    no     0.000000   16.000000    0.000000    64     0.2500
  3. axis:    no     0.000000    0.000000   16.000000    64     0.2500

  Lengths:  16.000000  16.000000  16.000000
  Angles:   90.000000  90.000000  90.000000

Effective grid spacing dv^(1/3) = 0.2500

     iter     time        total  log10-change:
                         energy  eigst   dens
iter:   1 19:43:12    -4.096861       c
iter:   2 19:43:13    -4.095183       c -1.69
iter:   3 19:43:15    -4.094007c      c -1.90
iter:   4 19:43:16    -4.093864c      c -2.49
iter:   5 19:43:17    -4.093864c      c -4.09c

Converged after 5 iterations.

Dipole moment: (0.000000, 0.000000, 0.000000) |e|*Ang

Energy contributions relative to reference atoms: (reference = -26392.251304)

Kinetic:        +25.154220
Potential:      -20.913084
External:        +0.000000
XC:              -8.276786
Entropy (-ST):   -0.190954
Local:           +0.037262
--------------------------
Free energy:     -4.189342
Extrapolated:    -4.093864

 Band  Eigenvalues  Occupancy
    0     -4.93525    2.00000
    1     -2.95854    1.33333
    2     -2.95854    1.33333
    3     -2.95854    1.33333
    4     -1.31160    0.00000
    5     -1.31160    0.00000
    6      0.59918    0.00000
    7      1.98754    0.00000
    8      1.98754    0.00000
    9      1.98754    0.00000

Fermi level: -2.92389

Gap: 1.647 eV
Transition (v -> c):
  (s=0, k=0, n=3, [0.00, 0.00, 0.00]) -> (s=0, k=0, n=4, [0.00, 0.00, 0.00])

Forces in eV/Ang:
  0 Na    0.19981    0.00000    0.00000
  1 Na   -0.19981   -0.00000    0.00000
  2 Na    0.00000    0.19981   -0.00000
  3 Na    0.00000   -0.19981   -0.00000
  4 Na   -0.00000   -0.00000    0.19981
  5 Na   -0.00000   -0.00000   -0.19981

System changes: positions 

Initializing position-dependent things.

Density initialized from wave functions
           .--------------------------------------.  
          /|                                      |  
         / |                                      |  
        /  |                                      |  
       /   |                                      |  
      /    |                                      |  
     /     |                                      |  
    /      |                                      |  
   /       |                                      |  
  /        |                                      |  
 *         |                                      |  
 |         |                                      |  
 |         |              Na                      |  
 |         |               Na                     |  
 |         |                                      |  
 |         |        Na         Na                 |  
 |         |                                      |  
 |         |            Na                        |  
 |         |              Na                      |  
 |         |                                      |  
 |         .--------------------------------------.  
 |        /                                      /   
 |       /                                      /    
 |      /                                      /     
 |     /                                      /      
 |    /                                      /       
 |   /                                      /        
 |  /                                      /         
 | /                                      /          
 |/                                      /           
 *--------------------------------------*            

Positions:
   0 Na    10.440064    8.000000    8.000000    ( 0.0000,  0.0000,  0.0000)
   1 Na     5.559936    8.000000    8.000000    ( 0.0000,  0.0000,  0.0000)
   2 Na     8.000000   10.440064    8.000000    ( 0.0000,  0.0000,  0.0000)
   3 Na     8.000000    5.559936    8.000000    ( 0.0000,  0.0000,  0.0000)
   4 Na     8.000000    8.000000   10.440064    ( 0.0000,  0.0000,  0.0000)
   5 Na     8.000000    8.000000    5.559936    ( 0.0000,  0.0000,  0.0000)

Unit cell:
           periodic     x           y           z      points  spacing
  1. axis:    no    16.000000    0.000000    0.000000    64     0.2500
  2. axis:    no     0.000000   16.000000    0.000000    64     0.2500
  3. axis:    no     0.000000    0.000000   16.000000    64     0.2500

  Lengths:  16.000000  16.000000  16.000000
  Angles:   90.000000  90.000000  90.000000

Effective grid spacing dv^(1/3) = 0.2500

     iter     time        total  log10-change:
                         energy  eigst   dens
iter:   1 19:43:19    -4.156091       c
iter:   2 19:43:20    -4.155596       c -1.96
iter:   3 19:43:21    -4.155152c      c -2.13
iter:   4 19:43:23    -4.155113c      c -2.79
iter:   5 19:43:24    -4.155113c      c -4.58c

Converged after 5 iterations.

Dipole moment: (0.000000, 0.000000, 0.000000) |e|*Ang

Energy contributions relative to reference atoms: (reference = -26392.251304)

Kinetic:        +20.001233
Potential:      -16.916729
External:        +0.000000
XC:              -7.174366
Entropy (-ST):   -0.190954
Local:           +0.030227
--------------------------
Free energy:     -4.250590
Extrapolated:    -4.155113

 Band  Eigenvalues  Occupancy
    0     -4.78932    2.00000
    1     -2.93185    1.33333
    2     -2.93185    1.33333
    3     -2.93185    1.33333
    4     -1.39737    0.00000
    5     -1.39737    0.00000
    6      0.95968    0.00000
    7      2.10521    0.00000
    8      2.10521    0.00000
    9      2.10521    0.00000

Fermi level: -2.89720

Gap: 1.534 eV
Transition (v -> c):
  (s=0, k=0, n=3, [0.00, 0.00, 0.00]) -> (s=0, k=0, n=4, [0.00, 0.00, 0.00])

Forces in eV/Ang:
  0 Na    0.00903    0.00000    0.00000
  1 Na   -0.00903    0.00000    0.00000
  2 Na    0.00000    0.00903   -0.00000
  3 Na    0.00000   -0.00903    0.00000
  4 Na   -0.00000   -0.00000    0.00903
  5 Na   -0.00000   -0.00000   -0.00903

Writing to Na6.gpw (mode='all')

Reading from Na6.gpw
Read dipole, energy, forces, free_energy, magmom, magmoms
Reading input parameters:
  basis: dzp
  h: 0.25
  mode: lcao
  nbands: 10
  occupations: {name: fermi-dirac,
                width: 0.05}
  setups: {Na: 1}

Initialize ...

species:
  Na:
    name: Sodium
    id: fa5c50181d04022fed15b2593599c257
    Z: 11.0
    valence: 1
    core: 10
    charge: 0.0
    file: /home/afonso/Desktop/Chalmers/TIF_320/GPAW_Datasets/gpaw-setups-0.9.20000/Na.1.LDA.gz
    compensation charges: {type: gauss,
                           rc: 0.43,
                           lmax: 2}
    cutoffs: {filter: 2.36,
              core: 3.60}
    valence states:
      #              energy  rcut
      - 3s(1.00)    -2.819   1.349
      - 3p(0.00)    -0.774   1.349
      -  s          24.392   1.349
  
    # LCAO basis set for Na:
    #   Name: 1.dzp
    #   File: /home/afonso/Desktop/Chalmers/TIF_320/GPAW_Datasets/gpaw-setups-0.9.20000/Na.1.dzp.basis.gz
    #   Number of radial functions: 3
    #   Number of spherical harmonics: 5
    #     l=0, rc=11.7656 Bohr: 3s-sz confined orbital
    #     l=0, rc=7.1094 Bohr: 3s-dz split-valence wave
    #     l=1, rc=11.7656 Bohr: p-type Gaussian polarization
    #   Number of RI-basis functions 0

Reference energy: -26392.251304  # eV

Spin-paired calculation

Occupation numbers: Fermi-Dirac:
  width: 0.0500  # eV
 

Density mixing:
  Method: separate
  Backend: pulay
  Linear mixing parameter: 0.25
  old densities: 3
  Damping of long wavelength oscillations: 1  # (no daming) 

Memory estimate:
  Process memory now: 389.01 MiB
  Calculator: 127.06 MiB
    Density: 80.09 MiB
      Arrays: 50.70 MiB
      Localized functions: 17.94 MiB
      Mixer: 11.45 MiB
    Hamiltonian: 34.46 MiB
      Arrays: 33.16 MiB
      XC: 0.00 MiB
      Poisson: 0.00 MiB
      vbar: 1.29 MiB
    Wavefunctions: 12.52 MiB
      C [qnM]: 0.00 MiB
      S, T [2 x qmm]: 0.01 MiB
      P [aqMi]: 0.00 MiB
      BasisFunctions: 12.50 MiB
      Eigensolver: 0.00 MiB

Total number of cores used: 1

Number of atoms: 6
Number of atomic orbitals: 30
Number of bands in calculation: 10
Number of valence electrons: 6
Bands to converge: occupied

... initialized

Reading from Na6.gpw
Read dipole, energy, forces, free_energy, magmom, magmoms
Reading input parameters:
  basis: dzp
  h: 0.25
  mode: lcao
  nbands: 10
  occupations: {name: fermi-dirac,
                width: 0.05}
  setups: {Na: 1}

Initialize ...

species:
  Na:
    name: Sodium
    id: fa5c50181d04022fed15b2593599c257
    Z: 11.0
    valence: 1
    core: 10
    charge: 0.0
    file: /home/afonso/Desktop/Chalmers/TIF_320/GPAW_Datasets/gpaw-setups-0.9.20000/Na.1.LDA.gz
    compensation charges: {type: gauss,
                           rc: 0.43,
                           lmax: 2}
    cutoffs: {filter: 2.36,
              core: 3.60}
    valence states:
      #              energy  rcut
      - 3s(1.00)    -2.819   1.349
      - 3p(0.00)    -0.774   1.349
      -  s          24.392   1.349
  
    # LCAO basis set for Na:
    #   Name: 1.dzp
    #   File: /home/afonso/Desktop/Chalmers/TIF_320/GPAW_Datasets/gpaw-setups-0.9.20000/Na.1.dzp.basis.gz
    #   Number of radial functions: 3
    #   Number of spherical harmonics: 5
    #     l=0, rc=11.7656 Bohr: 3s-sz confined orbital
    #     l=0, rc=7.1094 Bohr: 3s-dz split-valence wave
    #     l=1, rc=11.7656 Bohr: p-type Gaussian polarization
    #   Number of RI-basis functions 0

Reference energy: -26392.251304  # eV

Spin-paired calculation

Occupation numbers: Fermi-Dirac:
  width: 0.0500  # eV
 

Density mixing:
  Method: separate
  Backend: pulay
  Linear mixing parameter: 0.25
  old densities: 3
  Damping of long wavelength oscillations: 1  # (no daming) 

Memory estimate:
  Process memory now: 389.01 MiB
  Calculator: 127.06 MiB
    Density: 80.09 MiB
      Arrays: 50.70 MiB
      Localized functions: 17.94 MiB
      Mixer: 11.45 MiB
    Hamiltonian: 34.46 MiB
      Arrays: 33.16 MiB
      XC: 0.00 MiB
      Poisson: 0.00 MiB
      vbar: 1.29 MiB
    Wavefunctions: 12.52 MiB
      C [qnM]: 0.00 MiB
      S, T [2 x qmm]: 0.01 MiB
      P [aqMi]: 0.00 MiB
      BasisFunctions: 12.50 MiB
      Eigensolver: 0.00 MiB

Total number of cores used: 1

Number of atoms: 6
Number of atomic orbitals: 30
Number of bands in calculation: 10
Number of valence electrons: 6
Bands to converge: occupied

