
  ___ ___ ___ _ _ _  
 |   |   |_  | | | | 
 | | | | | . | | | | 
 |__ |  _|___|_____|  22.8.0
 |___|_|             

User:   afonso@afonso-OMEN-by-HP-Laptop-15-ce0xx
Date:   Wed Feb 22 23:18:21 2023
Arch:   x86_64
Pid:    9916
CWD:    /home/afonso/Desktop/Chalmers/TIF_320/Assignment4/Task5
Python: 3.8.10
gpaw:   /home/afonso/Desktop/Chalmers/TIF_320/TIF_320_venv/lib/python3.8/site-packages/gpaw
_gpaw:  /home/afonso/Desktop/Chalmers/TIF_320/TIF_320_venv/lib/python3.8/site-packages/
        _gpaw.cpython-38-x86_64-linux-gnu.so
ase:    /home/afonso/Desktop/Chalmers/TIF_320/TIF_320_venv/lib/python3.8/site-packages/ase (version 3.22.1)
numpy:  /home/afonso/Desktop/Chalmers/TIF_320/TIF_320_venv/lib/python3.8/site-packages/numpy (version 1.24.1)
scipy:  /home/afonso/Desktop/Chalmers/TIF_320/TIF_320_venv/lib/python3.8/site-packages/scipy (version 1.10.0)
libxc:  4.3.4
units:  Angstrom and eV
cores: 1
OpenMP: False
OMP_NUM_THREADS: 1

Input parameters:
  h: 0.2
  mode: {ecut: 450.00000000000006,
         name: pw}
  symmetry: {point_group: False}
  xc: PBE

Input parameters:
  hund: True

Memory usage: 597.00 MiB
Date: Wed Feb 22 23:18:55 2023
harges, initial_magmoms 

Initialize ...

species:
  O:
    name: Oxygen
    id: 32ecd46bf208036f09c70b0ec9a88b78
    Z: 8.0
    valence: 6
    core: 2
    charge: 0.0
    file: /home/afonso/Desktop/Chalmers/TIF_320/GPAW_Datasets/gpaw-setups-0.9.20000/O.PBE.gz
    compensation charges: {type: gauss,
                           rc: 0.21,
                           lmax: 2}
    cutoffs: {filter: 1.17,
              core: 0.83}
    valence states:
      #              energy  rcut
      - 2s(2.00)   -23.961   0.688
      - 2p(4.00)    -9.029   0.598
      -  s           3.251   0.688
      -  p          18.182   0.598
      -  d           0.000   0.619
  
    # Using partial waves for O as LCAO basis

Reference energy: -4081.704602  # eV

Spin-polarized calculation.
Magnetic moment: 4.000000

Convergence criteria:
 Maximum [total energy] change in last 3 cyles: 0.0005 eV / electron
 Maximum integral of absolute [dens]ity change: 0.0001 electrons / valence electron
 Maximum integral of absolute [eigenst]ate change: 4e-08 eV^2 / valence electron
 Maximum number of scf [iter]ations: 333
 (Square brackets indicate name in SCF output, whereas a 'c' in
 the SCF output indicates the quantity has converged.)

Symmetries present (total): 1

  ( 1  0  0)
  ( 0  1  0)
  ( 0  0  1)

1 k-point (Gamma)
1 k-point in the irreducible part of the Brillouin zone
       k-points in crystal coordinates                weights
   0:     0.00000000    0.00000000    0.00000000          1/1

Wave functions: Plane wave expansion
  Cutoff energy: 450.000 eV
  Number of coefficients: 37529 (reduced to 18765)
  Pulay-stress correction: 0.000000 eV/Ang^3 (de/decut=0.000000)
  Using Numpy's FFT
  ScaLapack parameters: grid=1x1, blocksize=None
  Wavefunction extrapolation:
    Improved wavefunction reuse through dual PAW basis 

Occupation numbers: # Zero width 

Eigensolver
   Davidson(niter=2) 

Densities:
  Coarse grid: 60*60*60 grid
  Fine grid: 120*120*120 grid
  Total Charge: 0.000000 

Density mixing:
  Method: difference
  Backend: pulay
  Linear mixing parameter: 0.05
  old densities: 5
  Damping of long wavelength oscillations: 50 

Hamiltonian:
  XC and Coulomb potentials evaluated on a 120*120*120 grid
  Using the PBE Exchange-Correlation functional
  External potential:
    NoExternalPotential
 

XC parameters: PBE with 2 nearest neighbor stencil

Memory estimate:
  Process memory now: 208.46 MiB
  Calculator: 181.51 MiB
    Density: 123.00 MiB
      Arrays: 57.68 MiB
      Localized functions: 42.25 MiB
      Mixer: 23.07 MiB
    Hamiltonian: 43.71 MiB
      Arrays: 42.85 MiB
      XC: 0.00 MiB
      Poisson: 0.00 MiB
      vbar: 0.86 MiB
    Wavefunctions: 14.80 MiB
      Arrays psit_nG: 4.58 MiB
      Eigensolver: 3.73 MiB
      Projections: 0.00 MiB
      Projectors: 2.00 MiB
      PW-descriptor: 4.49 MiB

Total number of cores used: 1

Number of atoms: 2
Number of atomic orbitals: 8
Number of bands in calculation: 8
Number of valence electrons: 12
Bands to converge: occupied

... initialized

Initializing position-dependent things.

Density initialized from atomic densities
Creating initial wave functions:
  8 bands from LCAO basis set

        .----------------------------.  
       /|                            |  
      / |                            |  
     /  |                            |  
    /   |                            |  
   /    |                            |  
  /     |                            |  
 *      |                            |  
 |      |                            |  
 |      |                            |  
 |      |          O                 |  
 |      |                            |  
 |      |          O                 |  
 |      |                            |  
 |      |                            |  
 |      .----------------------------.  
 |     /                            /   
 |    /                            /    
 |   /                            /     
 |  /                            /      
 | /                            /       
 |/                            /        
 *----------------------------*         

Positions:
   0 O      6.000000    6.000000    6.622978    ( 0.0000,  0.0000,  2.0000)
   1 O      6.000000    6.000000    5.377022    ( 0.0000,  0.0000,  2.0000)

Unit cell:
           periodic     x           y           z      points  spacing
  1. axis:    no    12.000000    0.000000    0.000000    60     0.2000
  2. axis:    no     0.000000   12.000000    0.000000    60     0.2000
  3. axis:    no     0.000000    0.000000   12.000000    60     0.2000

  Lengths:  12.000000  12.000000  12.000000
  Angles:   90.000000  90.000000  90.000000

Effective grid spacing dv^(1/3) = 0.2000

     iter     time        total  log10-change:  magmom
                         energy  eigst   dens
iter:   1 23:18:53    -6.567044                  +3.9996
