29
Lattice="8.86047739989916 0.0 0.0 4.43023869994958 7.673398517970561 0.0 0.0 0.0 16.823033001603367" Properties=species:S:1:pos:R:3:tags:I:1:forces:R:3:magmoms:R:1 energy=-93.07516270686753 dipole="-4.704348033291077 -2.7160566033823152 -0.08605092434246274" magmom=0.0 free_energy=-93.24192582133729 pbc="T T F"
Au       1.47674623       0.85259984       6.00000000        3      -0.00669008      -0.00386252      -0.09004723       0.00000000
Au       4.43023870       0.85259984       6.00000000        3       0.02007408       0.01747361      -0.06474885       0.00000000
Au       7.38373117       0.85259984       6.00000000        3      -0.02153133      -0.00168910      -0.06268742       0.00000000
Au       2.95349247       3.41039934       6.00000000        3       0.02516963       0.00864786      -0.06474885       0.00000000
Au       5.90698493       3.41039934       6.00000000        3      -0.00213872      -0.00123479      -0.03526827       0.00000000
Au       8.86047740       3.41039934       6.00000000        3      -0.02611591       0.01631700      -0.07367036       0.00000000
Au       4.43023870       5.96819885       6.00000000        3      -0.01222847      -0.01780213      -0.06268742       0.00000000
Au       7.38373117       5.96819885       6.00000000        3       0.00107299      -0.03077554      -0.07367036       0.00000000
Au      10.33722363       5.96819885       6.00000000        3       0.00348639       0.00201287      -0.00914644       0.00000000
Au      -0.00000000       1.70519967       8.41151650        2      -0.01429690       0.01110877      -0.15132327       0.00000000
Au       2.95349247       1.70519967       8.41151650        2       0.01751758       0.01011378      -0.17065934       0.00000000
Au       5.90698493       1.70519967       8.41151650        2       0.00022308       0.01098504      -0.00048860       0.00000000
Au       1.47674623       4.26299918       8.41151650        2      -0.00785421      -0.06789824       0.07890319       0.00000000
Au       4.43023870       4.26299918       8.41151650        2       0.00962487      -0.00529933      -0.00048860       0.00000000
Au       7.38373117       4.26299918       8.41151650        2       0.00191591       0.00110615       0.01032530       0.00000000
Au       2.95349247       6.82079868       8.41151650        2       0.06627533       0.03826408       0.06179300       0.00000000
Au       5.90698493       6.82079868       8.41151650        2       0.00247203      -0.01793587      -0.15132327       0.00000000
Au       8.86047740       6.82079868       8.41151650        2      -0.06272871       0.02714717       0.07890319       0.00000000
Au       0.00000000       0.00000000      10.82303300        1      -0.48283465      -0.27876471       0.22990739       0.00000000
Au       2.95349247       0.00000000      10.82303300        1       0.47459986      -0.29099373       0.22165058       0.00000000
Au       5.90698493       0.00000000      10.82303300        1       0.01245029      -0.01037010       0.02210876       0.00000000
Au       1.47674623       2.55779951      10.82303300        1      -0.01470804       0.55651240       0.22165058       0.00000000
Au       4.43023870       2.55779951      10.82303300        1       0.17474316       0.10088801      -0.00228027       0.00000000
Au       7.38373117       2.55779951      10.82303300        1      -0.17275933       0.10678839      -0.00946790       0.00000000
Au       2.95349247       5.11559901      10.82303300        1      -0.00275563       0.01596731       0.02210876       0.00000000
Au       5.90698493       5.11559901      10.82303300        1       0.00610180      -0.20300816      -0.00946790       0.00000000
Au       8.86047740       5.11559901      10.82303300        1       0.00347019       0.00200351       0.01531717       0.00000000
O        1.47709129       0.85279905      13.46142714        0       0.00198089       0.00114367       0.00746203       0.00000000
C        1.48166387       0.85543903      12.28755594        0       0.00740357       0.00427445      -0.00298524       0.00000000
