29
Lattice="8.418980542603652 0.0 0.0 4.209490271301826 7.291051023861659 0.0 0.0 0.0 16.58271255195529" Properties=species:S:1:pos:R:3:tags:I:1:forces:R:3:magmoms:R:1 energy=-177.7605294998821 dipole="-5.086196038865753 -2.936516652190381 -0.24888540146846683" magmom=0.0 free_energy=-178.62199959811682 pbc="T T F"
Pt       1.40316342       0.81011678       6.00000000        3      -0.00287413      -0.00165938      -0.03124170       0.00000000
Pt       4.20949027       0.81011678       6.00000000        3       0.02133197      -0.03704801      -0.07551513       0.00000000
Pt       7.01581712       0.81011678       6.00000000        3      -0.02000808      -0.03705685      -0.07525894       0.00000000
Pt       2.80632685       3.24046712       6.00000000        3      -0.02141853       0.03699803      -0.07551513       0.00000000
Pt       5.61265370       3.24046712       6.00000000        3      -0.00023481      -0.00013557      -0.07730735       0.00000000
Pt       8.41898054       3.24046712       6.00000000        3       0.02479817       0.04438986      -0.07726680       0.00000000
Pt       4.20949027       5.67081746       6.00000000        3      -0.04209621       0.00120092      -0.07525894       0.00000000
Pt       7.01581712       5.67081746       6.00000000        3       0.05084183      -0.00071909      -0.07726680       0.00000000
Pt       9.82214397       5.67081746       6.00000000        3      -0.02008940      -0.01159862      -0.45719632       0.00000000
Pt       0.00000000       1.62023356       8.29135628        2      -0.06398823       0.03547386      -0.26210218       0.00000000
Pt       2.80632685       1.62023356       8.29135628        2       0.06674659       0.03853616      -0.25860963       0.00000000
Pt       5.61265370       1.62023356       8.29135628        2      -0.00053359       0.00662957       0.01055185       0.00000000
Pt       1.40316342       4.05058390       8.29135628        2       0.00492924       0.05665344       0.05356643       0.00000000
Pt       4.20949027       4.05058390       8.29135628        2       0.00547458      -0.00377688       0.01055185       0.00000000
Pt       7.01581712       4.05058390       8.29135628        2      -0.00740084      -0.00427288       0.00989982       0.00000000
Pt       2.80632685       6.48093424       8.29135628        2      -0.04825970      -0.02786275       0.04040985       0.00000000
Pt       5.61265370       6.48093424       8.29135628        2      -0.00127285      -0.07315236      -0.26210218       0.00000000
Pt       8.41898054       6.48093424       8.29135628        2       0.05152794      -0.02405787       0.05356643       0.00000000
Pt       0.00000000       0.00000000      10.58271255        1      -0.26281431      -0.15173592       0.57617643       0.00000000
Pt       2.80632685       0.00000000      10.58271255        1       0.25951875      -0.15287605       0.55916166       0.00000000
Pt       5.61265370       0.00000000      10.58271255        1       0.00047186       0.00610864       0.00651764       0.00000000
Pt       1.40316342       2.43035034      10.58271255        1      -0.00263516       0.30118785       0.55916166       0.00000000
Pt       4.20949027       2.43035034      10.58271255        1       0.32842807       0.18961804      -0.00420675       0.00000000
Pt       7.01581712       2.43035034      10.58271255        1      -0.32563850       0.19190791      -0.01047101       0.00000000
Pt       2.80632685       4.86070068      10.58271255        1       0.00552617      -0.00264568       0.00651764       0.00000000
Pt       5.61265370       4.86070068      10.58271255        1       0.00337787      -0.37796517      -0.01047101       0.00000000
Pt       8.41898054       4.86070068      10.58271255        1      -0.00497614      -0.00287297       0.00399261       0.00000000
O        1.40256142       0.80976921      13.15123333        0       0.00157977       0.00091208       0.00021870       0.00000000
C        1.40418822       0.81070845      11.96074425        0       0.00142549       0.00082301      -0.00425057       0.00000000
