29
Lattice="8.143018476835444 0.0 0.0 4.071509238417722 7.05206086442556 0.0 0.0 0.0 16.432497829844962" Properties=species:S:1:pos:R:3:tags:I:1:forces:R:3:magmoms:R:1 energy=-198.68248977021284 dipole="-5.401091679980168 -3.118321735354567 -0.33086819801033623" magmom=0.0 free_energy=-199.55055482619525 pbc="T T F"
Rh       1.35716975       0.78356232       6.00000000        3       0.00285480       0.00164822       0.41274134       0.00000000
Rh       4.07150924       0.78356232       6.00000000        3       0.00833951      -0.03567670       0.43891834       0.00000000
Rh       6.78584873       0.78356232       6.00000000        3      -0.00549707      -0.03222228       0.44039239       0.00000000
Rh       2.71433949       3.13424927       6.00000000        3      -0.02672717       0.02506058       0.43891834       0.00000000
Rh       5.42867898       3.13424927       6.00000000        3      -0.00078728      -0.00045454       0.45223488       0.00000000
Rh       8.14301848       3.13424927       6.00000000        3       0.02444001       0.02263420       0.43564759       0.00000000
Rh       4.07150924       5.48493623       6.00000000        3      -0.03065385       0.01135054       0.44039239       0.00000000
Rh       6.78584873       5.48493623       6.00000000        3       0.03182180       0.00984857       0.43564759       0.00000000
Rh       9.50018822       5.48493623       6.00000000        3       0.00500760       0.00289114       0.21315244       0.00000000
Rh      -0.00000000       1.56712464       8.21624891        2      -0.05261276       0.02811629      -0.24331477       0.00000000
Rh       2.71433949       1.56712464       8.21624891        2       0.05284464       0.03050987      -0.24350672       0.00000000
Rh       5.42867898       1.56712464       8.21624891        2       0.00474562      -0.03429218       0.02114415       0.00000000
Rh       1.35716975       3.91781159       8.21624891        2      -0.00829495       0.14410073      -0.19466361       0.00000000
Rh       4.07150924       3.91781159       8.21624891        2      -0.02732509       0.02125592       0.02114415       0.00000000
Rh       6.78584873       3.91781159       8.21624891        2       0.02999285       0.01731638       0.01820678       0.00000000
Rh       2.71433949       6.26849855       8.21624891        2      -0.12084840      -0.06977186      -0.20148913       0.00000000
Rh       5.42867898       6.26849855       8.21624891        2      -0.00195696      -0.05962214      -0.24331477       0.00000000
Rh       8.14301848       6.26849855       8.21624891        2       0.12064742      -0.07923400      -0.19466361       0.00000000
Rh       0.00000000       0.00000000      10.43249783        1      -0.16250902      -0.09382462       0.10070727       0.00000000
Rh       2.71433949       0.00000000      10.43249783        1       0.16089850      -0.07837139       0.11856651       0.00000000
Rh       5.42867898       0.00000000      10.43249783        1      -0.00940485       0.00669098      -0.49013198       0.00000000
Rh       1.35716975       2.35068695      10.43249783        1       0.01257763       0.17852789       0.11856651       0.00000000
Rh       4.07150924       2.35068695      10.43249783        1       0.25602037       0.14781343      -0.46006821       0.00000000
Rh       6.78584873       2.35068695      10.43249783        1      -0.26478269       0.14591821      -0.46743365       0.00000000
Rh       2.71433949       4.70137391      10.43249783        1       0.00109213      -0.01149033      -0.49013198       0.00000000
Rh       5.42867898       4.70137391      10.43249783        1      -0.00602247      -0.30226764      -0.46743365       0.00000000
Rh       8.14301848       4.70137391      10.43249783        1      -0.00212961      -0.00122953      -0.48848674       0.00000000
O        1.35007200       0.77946443      13.03206942        0       0.00523451       0.00302214      -0.00395830       0.00000000
C        1.34647865       0.77738981      11.84094161        0       0.00029958       0.00017296       0.00248730       0.00000000
