28
Lattice="8.143018476835444 0.0 0.0 4.071509238417722 7.05206086442556 0.0 0.0 0.0 16.432497829844962" Properties=species:S:1:pos:R:3:tags:I:1:forces:R:3:magmoms:R:1 energy=-188.9329964068765 dipole="-1.870965566974862 -1.0802024737374696 -0.14960854807643895" magmom=-1.9125653296648184e-08 free_energy=-189.777052372766 pbc="T T F"
Rh       1.35716975       0.78356232       6.00000000        3      -0.00025555      -0.00014754       0.43717760      -0.00000001
Rh       4.07150924       0.78356232       6.00000000        3       0.00334243      -0.05599171       0.46689564       0.00000000
Rh       6.78584873       0.78356232       6.00000000        3      -0.00101654      -0.05996639       0.46895292      -0.00000000
Rh       2.71433949       3.13424927       6.00000000        3      -0.04681903       0.03089049       0.46689564       0.00000000
Rh       5.42867898       3.13424927       6.00000000        3       0.00338541       0.00195457       0.45534638      -0.00000000
Rh       8.14301848       3.13424927       6.00000000        3       0.04711501       0.02776941       0.46339336      -0.00000000
Rh       4.07150924       5.48493623       6.00000000        3      -0.05244068       0.02910285       0.46895292      -0.00000000
Rh       6.78584873       5.48493623       6.00000000        3       0.04760652       0.02691809       0.46339336      -0.00000000
Rh       9.50018822       5.48493623       6.00000000        3       0.01109189       0.00640390      -0.03684740      -0.00000000
Rh      -0.00000000       1.56712464       8.21624891        2      -0.10913560       0.06719718      -0.39306335       0.00000000
Rh       2.71433949       1.56712464       8.21624891        2       0.10856823       0.06268190      -0.39379295      -0.00000000
Rh       5.42867898       1.56712464       8.21624891        2       0.00171116      -0.00835845       0.04820253      -0.00000000
Rh       1.35716975       3.91781159       8.21624891        2       0.00119279      -0.01227793       0.07691623       0.00000000
Rh       4.07150924       3.91781159       8.21624891        2      -0.00638305       0.00566113       0.04820253      -0.00000000
Rh       6.78584873       3.91781159       8.21624891        2       0.00982153       0.00567046       0.04875524       0.00000000
Rh       2.71433949       6.26849855       8.21624891        2       0.01011387       0.00583925       0.08211943       0.00000000
Rh       5.42867898       6.26849855       8.21624891        2       0.00362666      -0.12811279      -0.39306335       0.00000000
Rh       8.14301848       6.26849855       8.21624891        2      -0.01003660       0.00717195       0.07691623       0.00000000
Rh       0.00000000       0.00000000      10.43249783        1      -0.17702112      -0.10220319       0.07849391       0.00000000
Rh       2.71433949       0.00000000      10.43249783        1       0.17546435      -0.10840683       0.08600002      -0.00000000
Rh       5.42867898       0.00000000      10.43249783        1      -0.00709012       0.01986222      -0.52534045      -0.00000001
Rh       1.35716975       2.35068695      10.43249783        1      -0.00615089       0.20616000       0.08600002      -0.00000000
Rh       4.07150924       2.35068695      10.43249783        1       0.34735272       0.20054419      -0.47630437      -0.00000001
Rh       6.78584873       2.35068695      10.43249783        1      -0.34672133       0.19341594      -0.47206044      -0.00000000
Rh       2.71433949       4.70137391      10.43249783        1       0.01365612      -0.01607133      -0.52534045      -0.00000001
Rh       5.42867898       4.70137391      10.43249783        1      -0.00585755      -0.39697745      -0.47206044      -0.00000000
Rh       8.14301848       4.70137391      10.43249783        1      -0.01779639      -0.01027475      -0.52575688      -0.00000001
O        1.35820806       0.78416179      11.74414648        0       0.00289502       0.00167144       0.00228294      -0.00000000
