
  ___ ___ ___ _ _ _  
 |   |   |_  | | | | 
 | | | | | . | | | | 
 |__ |  _|___|_____|  22.8.0
 |___|_|             

User:   afonso@afonso-OMEN-by-HP-Laptop-15-ce0xx
Date:   Fri Feb  3 15:51:37 2023
Arch:   x86_64
Pid:    106270
CWD:    /home/afonso/Desktop/Chalmers/TIF_320/Task10
Python: 3.8.10
gpaw:   /home/afonso/Desktop/Chalmers/TIF_320/TIF_320_venv/lib/python3.8/site-packages/gpaw
_gpaw:  /home/afonso/Desktop/Chalmers/TIF_320/TIF_320_venv/lib/python3.8/site-packages/
        _gpaw.cpython-38-x86_64-linux-gnu.so
ase:    /home/afonso/Desktop/Chalmers/TIF_320/TIF_320_venv/lib/python3.8/site-packages/ase (version 3.22.1)
numpy:  /home/afonso/Desktop/Chalmers/TIF_320/TIF_320_venv/lib/python3.8/site-packages/numpy (version 1.24.1)
scipy:  /home/afonso/Desktop/Chalmers/TIF_320/TIF_320_venv/lib/python3.8/site-packages/scipy (version 1.10.0)
libxc:  4.3.4
units:  Angstrom and eV
cores: 1
OpenMP: False
OMP_NUM_THREADS: 1

Input parameters:
  h: 0.25
  mode: {interpolation: 3,
         name: fd,
         nn: 3}
  nbands: 10
  occupations: {fixmagmom: False,
                name: fermi-dirac,
                width: 0.05}
  setups: {Na: 1}

System changes: positions, numbers, cell, pbc, initial_charges, initial_magmoms 

Initialize ...

species:
  Na:
    name: Sodium
    id: fa5c50181d04022fed15b2593599c257
    Z: 11.0
    valence: 1
    core: 10
    charge: 0.0
    file: /home/afonso/Desktop/Chalmers/TIF_320/GPAW_Datasets/gpaw-setups-0.9.20000/Na.1.LDA.gz
    compensation charges: {type: gauss,
                           rc: 0.43,
                           lmax: 2}
    cutoffs: {filter: 2.36,
              core: 3.60}
    valence states:
      #              energy  rcut
      - 3s(1.00)    -2.819   1.349
      - 3p(0.00)    -0.774   1.349
      -  s          24.392   1.349
  
    # Using partial waves for Na as LCAO basis

Reference energy: -30790.959854  # eV

Spin-paired calculation

Convergence criteria:
 Maximum [total energy] change in last 3 cyles: 0.0005 eV / electron
 Maximum integral of absolute [dens]ity change: 0.0001 electrons / valence electron
 Maximum integral of absolute [eigenst]ate change: 4e-08 eV^2 / valence electron
 Maximum number of scf [iter]ations: 333
 (Square brackets indicate name in SCF output, whereas a 'c' in
 the SCF output indicates the quantity has converged.)

Symmetries present (total): 1

  ( 1  0  0)
  ( 0  1  0)
  ( 0  0  1)

1 k-point (Gamma)
1 k-point in the irreducible part of the Brillouin zone
       k-points in crystal coordinates                weights
   0:     0.00000000    0.00000000    0.00000000          1/1

Wave functions: Uniform real-space grid
  Kinetic energy operator: 6*3+1=19 point O(h^6) finite-difference Laplacian
  ScaLapack parameters: grid=1x1, blocksize=None
  Wavefunction extrapolation:
    Improved wavefunction reuse through dual PAW basis 

Occupation numbers: Fermi-Dirac:
  width: 0.0500  # eV
 

Eigensolver
   Davidson(niter=2) 

Densities:
  Coarse grid: 64*64*64 grid
  Fine grid: 128*128*128 grid
  Total Charge: 0.000000 

Density mixing:
  Method: separate
  Backend: pulay
  Linear mixing parameter: 0.25
  old densities: 3
  Damping of long wavelength oscillations: 1  # (no daming) 

Hamiltonian:
  XC and Coulomb potentials evaluated on a 128*128*128 grid
  Using the LDA Exchange-Correlation functional
  Interpolation: tri-quintic (5. degree polynomial)
  Poisson solver: FastPoissonSolver using
    Stencil: 6*3+1=19 point O(h^6) finite-difference Laplacian
    FFT axes: []
    FST axes: [0, 1, 2]
 

Memory estimate:
  Process memory now: 533.89 MiB
  Calculator: 166.40 MiB
    Density: 83.08 MiB
      Arrays: 50.70 MiB
      Localized functions: 20.93 MiB
      Mixer: 11.45 MiB
    Hamiltonian: 34.67 MiB
      Arrays: 33.16 MiB
      XC: 0.00 MiB
      Poisson: 0.00 MiB
      vbar: 1.51 MiB
    Wavefunctions: 48.65 MiB
      Arrays psit_nG: 19.08 MiB
      Eigensolver: 28.62 MiB
      Projections: 0.00 MiB
      Projectors: 0.94 MiB

Total number of cores used: 1

Number of atoms: 7
Number of atomic orbitals: 28
Number of bands in calculation: 10
Number of valence electrons: 7
Bands to converge: occupied

... initialized

Initializing position-dependent things.

Density initialized from atomic densities
Creating initial wave functions:
  10 bands from LCAO basis set

           .--------------------------------------.  
          /|                                      |  
         / |                                      |  
        /  |                                      |  
       /   |                                      |  
      /    |                                      |  
     /     |                                      |  
    /      |                                      |  
   /       |                                      |  
  /        |                                      |  
 *         |                                      |  
 |         |            Na                        |  
 |         |                                      |  
 |         |                                      |  
 |         |           Na  Na Na                  |  
 |         |                                      |  
 |         |         Na                           |  
 |         |                                      |  
 |         |             Na Na                    |  
 |         |                                      |  
 |         .--------------------------------------.  
 |        /                                      /   
 |       /                                      /    
 |      /                                      /     
 |     /                                      /      
 |    /                                      /       
 |   /                                      /        
 |  /                                      /         
 | /                                      /          
 |/                                      /           
 *--------------------------------------*            

Positions:
   0 Na     9.558423    5.864481    6.555813    ( 0.0000,  0.0000,  0.0000)
   1 Na     7.271104    8.576284   10.720893    ( 0.0000,  0.0000,  0.0000)
   2 Na     9.260669    5.947598    9.920032    ( 0.0000,  0.0000,  0.0000)
   3 Na     9.608060    8.919325    8.188701    ( 0.0000,  0.0000,  0.0000)
   4 Na     6.391940   10.135519    7.843943    ( 0.0000,  0.0000,  0.0000)
   5 Na     7.790701    8.438504    5.279107    ( 0.0000,  0.0000,  0.0000)
   6 Na     6.502768    6.674482    7.954538    ( 0.0000,  0.0000,  0.0000)

Unit cell:
           periodic     x           y           z      points  spacing
  1. axis:    no    16.000000    0.000000    0.000000    64     0.2500
  2. axis:    no     0.000000   16.000000    0.000000    64     0.2500
  3. axis:    no     0.000000    0.000000   16.000000    64     0.2500

  Lengths:  16.000000  16.000000  16.000000
  Angles:   90.000000  90.000000  90.000000

Effective grid spacing dv^(1/3) = 0.2500

     iter     time        total  log10-change:
                         energy  eigst   dens
iter:   1 15:51:39    -6.809307
iter:   2 15:51:39    -6.497207  +0.33  -0.46
iter:   3 15:51:40    -6.552767  +0.78  -0.64
iter:   4 15:51:41    -6.539027  -0.35  -0.99
iter:   5 15:51:42    -6.520385  -1.58  -1.07
iter:   6 15:51:43    -6.518482  -0.82  -1.49
iter:   7 15:51:44    -6.517667c -2.35  -1.83
iter:   8 15:51:45    -6.517521c -2.21  -1.97
iter:   9 15:51:46    -6.517533c -2.61  -2.26
iter:  10 15:51:46    -6.517374c -3.33  -2.28
iter:  11 15:51:47    -6.517382c -3.43  -2.77
iter:  12 15:51:48    -6.517386c -4.50  -2.91
iter:  13 15:51:49    -6.517380c -5.10  -3.05
iter:  14 15:51:50    -6.517380c -4.41  -3.51
iter:  15 15:51:51    -6.517380c -5.44  -3.55
iter:  16 15:51:51    -6.517380c -6.49  -3.62
iter:  17 15:51:52    -6.517380c -5.63  -3.98
iter:  18 15:51:53    -6.517380c -7.32  -4.30c
iter:  19 15:51:54    -6.517380c -6.99  -4.57c
iter:  20 15:51:55    -6.517380c -7.29  -4.58c
iter:  21 15:51:55    -6.517380c -8.61c -4.81c

Converged after 21 iterations.

Dipole moment: (-0.000004, -0.000654, 0.004236) |e|*Ang

Energy contributions relative to reference atoms: (reference = -30790.959854)

Kinetic:        +14.073682
Potential:      -12.439901
External:        +0.000000
XC:              -8.108282
Entropy (-ST):   -0.069342
Local:           -0.008208
--------------------------
Free energy:     -6.552051
Extrapolated:    -6.517380

 Band  Eigenvalues  Occupancy
    0     -4.67615    2.00000
    1     -3.24855    1.99998
    2     -3.24430    1.99998
    3     -2.67569    1.00004
    4     -1.78663    0.00000
    5     -1.77850    0.00000
    6     -1.74706    0.00000
    7     -1.22462    0.00000
    8     -1.21875    0.00000
    9     -1.05317    0.00000

Fermi level: -2.67569

Gap: 0.889 eV
Transition (v -> c):
  (s=0, k=0, n=3, [0.00, 0.00, 0.00]) -> (s=0, k=0, n=4, [0.00, 0.00, 0.00])

Forces in eV/Ang:
  0 Na    0.00068   -0.00011   -0.00115
  1 Na    0.00337   -0.00031   -0.00060
  2 Na   -0.00520    0.00563    0.00225
  3 Na   -0.04573   -0.03297   -0.00312
  4 Na   -0.00039   -0.00269    0.00389
  5 Na   -0.00095    0.00389   -0.00331
  6 Na    0.04353    0.03080    0.00325

System changes: positions 

Initializing position-dependent things.

Density initialized from wave functions
           .--------------------------------------.  
          /|                                      |  
         / |                                      |  
        /  |                                      |  
       /   |                                      |  
      /    |                                      |  
     /     |                                      |  
    /      |                                      |  
   /       |                                      |  
  /        |                                      |  
 *         |                                      |  
 |         |            Na                        |  
 |         |                                      |  
 |         |                                      |  
 |         |           Na  NaNa                   |  
 |         |                                      |  
 |         |          Na                          |  
 |         |                                      |  
 |         |             Na Na                    |  
 |         |                                      |  
 |         .--------------------------------------.  
 |        /                                      /   
 |       /                                      /    
 |      /                                      /     
 |     /                                      /      
 |    /                                      /       
 |   /                                      /        
 |  /                                      /         
 | /                                      /          
 |/                                      /           
 *--------------------------------------*            

Positions:
   0 Na     9.561905    5.863938    6.549976    ( 0.0000,  0.0000,  0.0000)
   1 Na     7.288290    8.574725   10.717820    ( 0.0000,  0.0000,  0.0000)
   2 Na     9.234195    5.976259    9.931471    ( 0.0000,  0.0000,  0.0000)
   3 Na     9.375153    8.751393    8.172830    ( 0.0000,  0.0000,  0.0000)
   4 Na     6.389953   10.121815    7.863765    ( 0.0000,  0.0000,  0.0000)
   5 Na     7.785851    8.458326    5.262259    ( 0.0000,  0.0000,  0.0000)
   6 Na     6.724472    6.831343    7.971082    ( 0.0000,  0.0000,  0.0000)

Unit cell:
           periodic     x           y           z      points  spacing
  1. axis:    no    16.000000    0.000000    0.000000    64     0.2500
  2. axis:    no     0.000000   16.000000    0.000000    64     0.2500
  3. axis:    no     0.000000    0.000000   16.000000    64     0.2500

  Lengths:  16.000000  16.000000  16.000000
  Angles:   90.000000  90.000000  90.000000

Effective grid spacing dv^(1/3) = 0.2500

     iter     time        total  log10-change:
                         energy  eigst   dens
iter:   1 15:51:56    -6.474271  +0.23
iter:   2 15:51:57    -6.473879  -0.68  -1.12
iter:   3 15:51:58    -6.466635  -1.32  -1.25
iter:   4 15:51:59    -6.466856  -1.55  -1.64
iter:   5 15:52:00    -6.466973c -2.15  -2.04
iter:   6 15:52:00    -6.467058c -2.63  -2.38
iter:   7 15:52:01    -6.467092c -3.06  -2.56
iter:   8 15:52:02    -6.467113c -3.33  -2.65
iter:   9 15:52:03    -6.467121c -3.67  -3.09
iter:  10 15:52:04    -6.467124c -4.06  -3.18
iter:  11 15:52:04    -6.467125c -4.41  -3.29
iter:  12 15:52:05    -6.467125c -4.88  -3.44
iter:  13 15:52:06    -6.467126c -5.19  -3.51
iter:  14 15:52:07    -6.467126c -5.69  -3.81
iter:  15 15:52:08    -6.467126c -5.86  -3.88
iter:  16 15:52:08    -6.467126c -6.31  -4.30c
iter:  17 15:52:09    -6.467126c -6.73  -4.68c
iter:  18 15:52:10    -6.467126c -7.09  -4.75c
iter:  19 15:52:11    -6.467126c -7.67c -5.13c

Converged after 19 iterations.

Dipole moment: (0.000378, -0.003910, -0.008729) |e|*Ang

Energy contributions relative to reference atoms: (reference = -30790.959854)

Kinetic:        +19.036127
Potential:      -16.257512
External:        +0.000000
XC:              -9.202337
Entropy (-ST):   -0.069317
Local:           -0.008745
--------------------------
Free energy:     -6.501785
Extrapolated:    -6.467126

 Band  Eigenvalues  Occupancy
    0     -4.78575    2.00000
    1     -3.30521    2.00000
    2     -3.29398    2.00000
    3     -2.54099    1.00000
    4     -1.80793    0.00000
    5     -1.79525    0.00000
    6     -1.79002    0.00000
    7     -1.15946    0.00000
    8     -1.14453    0.00000
    9     -0.85430    0.00000

Fermi level: -2.54099

Gap: 0.753 eV
Transition (v -> c):
  (s=0, k=0, n=2, [0.00, 0.00, 0.00]) -> (s=0, k=0, n=3, [0.00, 0.00, 0.00])

Forces in eV/Ang:
  0 Na    0.04227   -0.05510   -0.04407
  1 Na   -0.04131    0.04120    0.10887
  2 Na    0.05871   -0.08835    0.06108
  3 Na    0.21730    0.15632   -0.00409
  4 Na   -0.06418    0.08640   -0.01599
  5 Na   -0.00655    0.01475   -0.06935
  6 Na   -0.21029   -0.15183   -0.03389

System changes: positions 

Initializing position-dependent things.

Density initialized from wave functions
           .--------------------------------------.  
          /|                                      |  
         / |                                      |  
        /  |                                      |  
       /   |                                      |  
      /    |                                      |  
     /     |                                      |  
    /      |                                      |  
   /       |                                      |  
  /        |                                      |  
 *         |                                      |  
 |         |            Na                        |  
 |         |                                      |  
 |         |                                      |  
 |         |           Na  Na Na                  |  
 |         |                                      |  
 |         |         Na                           |  
 |         |                                      |  
 |         |             Na Na                    |  
 |         |                                      |  
 |         .--------------------------------------.  
 |        /                                      /   
 |       /                                      /    
 |      /                                      /     
 |     /                                      /      
 |    /                                      /       
 |   /                                      /        
 |  /                                      /         
 | /                                      /          
 |/                                      /           
 *--------------------------------------*            

Positions:
   0 Na     9.616002    5.796413    6.491939    ( 0.0000,  0.0000,  0.0000)
   1 Na     7.250793    8.623752   10.848159    ( 0.0000,  0.0000,  0.0000)
   2 Na     9.285966    5.890012   10.014419    ( 0.0000,  0.0000,  0.0000)
   3 Na     9.466075    8.816515    8.156002    ( 0.0000,  0.0000,  0.0000)
   4 Na     6.310290   10.216838    7.859076    ( 0.0000,  0.0000,  0.0000)
   5 Na     7.774250    8.491086    5.165204    ( 0.0000,  0.0000,  0.0000)
   6 Na     6.633735    6.763437    7.942139    ( 0.0000,  0.0000,  0.0000)

Unit cell:
           periodic     x           y           z      points  spacing
  1. axis:    no    16.000000    0.000000    0.000000    64     0.2500
  2. axis:    no     0.000000   16.000000    0.000000    64     0.2500
  3. axis:    no     0.000000    0.000000   16.000000    64     0.2500

  Lengths:  16.000000  16.000000  16.000000
  Angles:   90.000000  90.000000  90.000000

Effective grid spacing dv^(1/3) = 0.2500

     iter     time        total  log10-change:
                         energy  eigst   dens
iter:   1 15:52:12    -6.588047  +0.51
iter:   2 15:52:13    -6.537314  -0.64  -0.95
iter:   3 15:52:13    -6.497475  -0.48  -1.09
iter:   4 15:52:14    -6.498076  -1.37  -1.72
iter:   5 15:52:15    -6.498681c -2.09  -1.85
iter:   6 15:52:16    -6.497832c -2.34  -1.92
iter:   7 15:52:16    -6.497934c -2.46  -2.21
iter:   8 15:52:17    -6.497993c -2.80  -2.71
iter:   9 15:52:18    -6.498016c -3.16  -3.02
iter:  10 15:52:19    -6.498031c -3.42  -2.87
iter:  11 15:52:20    -6.498033c -3.85  -2.72
iter:  12 15:52:21    -6.498040c -4.01  -2.70
iter:  13 15:52:22    -6.498024c -4.91  -2.64
iter:  14 15:52:22    -6.498041c -3.62  -2.80
iter:  15 15:52:23    -6.498029c -4.78  -2.68
iter:  16 15:52:24    -6.498018c -4.27  -2.78
iter:  17 15:52:25    -6.498017c -4.19  -3.09
iter:  18 15:52:26    -6.498017c -5.73  -3.50
iter:  19 15:52:27    -6.498017c -5.80  -4.01c
iter:  20 15:52:27    -6.498017c -6.26  -4.09c
iter:  21 15:52:28    -6.498017c -7.52c -4.20c

Converged after 21 iterations.

Dipole moment: (-0.000509, -0.004283, 0.001692) |e|*Ang

Energy contributions relative to reference atoms: (reference = -30790.959854)

Kinetic:        +12.052194
Potential:      -10.813745
External:        +0.000000
XC:              -7.693606
Entropy (-ST):   -0.069320
Local:           -0.008200
--------------------------
Free energy:     -6.532677
Extrapolated:    -6.498017

 Band  Eigenvalues  Occupancy
    0     -4.62223    2.00000
    1     -3.25159    2.00000
    2     -3.24380    2.00000
    3     -2.52842    1.00000
    4     -1.84091    0.00000
    5     -1.82754    0.00000
    6     -1.79392    0.00000
    7     -1.16500    0.00000
    8     -1.15192    0.00000
    9     -0.90427    0.00000

Fermi level: -2.52842

Gap: 0.715 eV
Transition (v -> c):
  (s=0, k=0, n=2, [0.00, 0.00, 0.00]) -> (s=0, k=0, n=3, [0.00, 0.00, 0.00])

Forces in eV/Ang:
  0 Na   -0.04192    0.05213    0.04760
  1 Na    0.02443   -0.02745   -0.09551
  2 Na   -0.03545    0.05443   -0.06560
  3 Na    0.01548    0.01423    0.01478
  4 Na    0.04656   -0.06578    0.00562
  5 Na    0.00565   -0.01996    0.08006
  6 Na   -0.01616   -0.00598    0.01352

System changes: positions 

Initializing position-dependent things.

Density initialized from wave functions
           .--------------------------------------.  
          /|                                      |  
         / |                                      |  
        /  |                                      |  
       /   |                                      |  
      /    |                                      |  
     /     |                                      |  
    /      |                                      |  
   /       |                                      |  
  /        |                                      |  
 *         |                                      |  
 |         |            Na                        |  
 |         |                                      |  
 |         |                                      |  
 |         |           Na  Na Na                  |  
 |         |                                      |  
 |         |         Na                           |  
 |         |                                      |  
 |         |             Na Na                    |  
 |         |                                      |  
 |         .--------------------------------------.  
 |        /                                      /   
 |       /                                      /    
 |      /                                      /     
 |     /                                      /      
 |    /                                      /       
 |   /                                      /        
 |  /                                      /         
 | /                                      /          
 |/                                      /           
 *--------------------------------------*            

Positions:
   0 Na     9.569028    5.853566    6.544786    ( 0.0000,  0.0000,  0.0000)
   1 Na     7.273376    8.589687   10.742620    ( 0.0000,  0.0000,  0.0000)
   2 Na     9.254652    5.944683    9.939363    ( 0.0000,  0.0000,  0.0000)
   3 Na     9.527846    8.863188    8.177011    ( 0.0000,  0.0000,  0.0000)
   4 Na     6.368516   10.146469    7.857266    ( 0.0000,  0.0000,  0.0000)
   5 Na     7.783618    8.459847    5.256403    ( 0.0000,  0.0000,  0.0000)
   6 Na     6.575455    6.727005    7.954942    ( 0.0000,  0.0000,  0.0000)

Unit cell:
           periodic     x           y           z      points  spacing
  1. axis:    no    16.000000    0.000000    0.000000    64     0.2500
  2. axis:    no     0.000000   16.000000    0.000000    64     0.2500
  3. axis:    no     0.000000    0.000000   16.000000    64     0.2500

  Lengths:  16.000000  16.000000  16.000000
  Angles:   90.000000  90.000000  90.000000

Effective grid spacing dv^(1/3) = 0.2500

     iter     time        total  log10-change:
                         energy  eigst   dens
iter:   1 15:52:29    -6.552177  +0.04
iter:   2 15:52:30    -6.535235  -0.99  -1.16
iter:   3 15:52:31    -6.521898  -1.02  -1.30
iter:   4 15:52:31    -6.522109  -1.85  -1.88
iter:   5 15:52:32    -6.522132c -2.46  -1.98
iter:   6 15:52:33    -6.521826c -2.76  -2.22
iter:   7 15:52:34    -6.521854c -3.08  -2.44
iter:   8 15:52:35    -6.521871c -3.51  -2.87
iter:   9 15:52:35    -6.521876c -4.42  -3.06
iter:  10 15:52:36    -6.521874c -4.40  -3.15
iter:  11 15:52:37    -6.521874c -4.79  -3.76
iter:  12 15:52:38    -6.521874c -5.24  -3.93
iter:  13 15:52:38    -6.521874c -5.74  -4.06c
iter:  14 15:52:39    -6.521875c -6.19  -4.34c
iter:  15 15:52:40    -6.521875c -6.66  -4.45c
iter:  16 15:52:41    -6.521875c -7.01  -4.83c
iter:  17 15:52:41    -6.521875c -7.40c -4.82c

Converged after 17 iterations.

Dipole moment: (0.000063, -0.002408, 0.000027) |e|*Ang

Energy contributions relative to reference atoms: (reference = -30790.959854)

Kinetic:        +14.711258
Potential:      -12.923919
External:        +0.000000
XC:              -8.266220
Entropy (-ST):   -0.069323
Local:           -0.008333
--------------------------
Free energy:     -6.556536
Extrapolated:    -6.521875

 Band  Eigenvalues  Occupancy
    0     -4.69174    2.00000
    1     -3.25964    1.99999
    2     -3.25900    1.99999
    3     -2.61926    1.00001
    4     -1.80069    0.00000
    5     -1.79207    0.00000
    6     -1.76602    0.00000
    7     -1.19951    0.00000
    8     -1.19167    0.00000
    9     -0.98183    0.00000

Fermi level: -2.61926

Gap: 0.819 eV
Transition (v -> c):
  (s=0, k=0, n=3, [0.00, 0.00, 0.00]) -> (s=0, k=0, n=4, [0.00, 0.00, 0.00])

Forces in eV/Ang:
  0 Na   -0.00033    0.00016   -0.00260
  1 Na   -0.00176    0.00130    0.00429
  2 Na    0.00242   -0.00386    0.00168
  3 Na    0.00893    0.00892    0.00116
  4 Na   -0.00220    0.00208   -0.00203
  5 Na    0.00002   -0.00066    0.00027
  6 Na   -0.01130   -0.00536   -0.00046

Writing to Na7/Na7.gpw (mode='all')

Timing:                                      incl.     excl.
-------------------------------------------------------------------
Density initialized from wave functions:     0.065     0.065   0.1% |
 Symmetrize density:                         0.000     0.000   0.0% |
Forces:                                      0.472     0.472   0.7% |
Hamiltonian:                                 1.331     0.000   0.0% |
 Atomic:                                     0.161     0.002   0.0% |
  XC Correction:                             0.158     0.158   0.2% |
 Calculate atomic Hamiltonians:              0.016     0.016   0.0% |
 Communicate:                                0.000     0.000   0.0% |
 Hartree integrate/restrict:                 0.073     0.073   0.1% |
 Initialize Hamiltonian:                     0.001     0.001   0.0% |
 Poisson:                                    0.581     0.027   0.0% |
  Communicate from 1D:                       0.058     0.058   0.1% |
  Communicate from 2D:                       0.051     0.051   0.1% |
  Communicate to 1D:                         0.061     0.061   0.1% |
  Communicate to 2D:                         0.059     0.059   0.1% |
  FFT 1D:                                    0.102     0.102   0.2% |
  FFT 2D:                                    0.223     0.223   0.3% |
 XC 3D grid:                                 0.474     0.474   0.7% |
 vbar:                                       0.025     0.025   0.0% |
LCAO initialization:                         0.043     0.007   0.0% |
 LCAO eigensolver:                           0.012     0.000   0.0% |
  Calculate projections:                     0.000     0.000   0.0% |
  DenseAtomicCorrection:                     0.000     0.000   0.0% |
  Distribute overlap matrix:                 0.000     0.000   0.0% |
  Orbital Layouts:                           0.000     0.000   0.0% |
  Potential matrix:                          0.011     0.011   0.0% |
 LCAO to grid:                               0.012     0.012   0.0% |
 Set positions (LCAO WFS):                   0.013     0.002   0.0% |
  Basic WFS set positions:                   0.000     0.000   0.0% |
  Basis functions set positions:             0.000     0.000   0.0% |
  P tci:                                     0.007     0.007   0.0% |
  ST tci:                                    0.002     0.002   0.0% |
  mktci:                                     0.001     0.001   0.0% |
Redistribute:                                0.001     0.001   0.0% |
SCF-cycle:                                  61.458     0.057   0.1% |
 Davidson:                                  33.714    12.529  18.5% |------|
  Apply hamiltonian:                         3.644     3.644   5.4% |-|
  Subspace diag:                             5.111     0.006   0.0% |
   calc_h_matrix:                            4.202     0.570   0.8% |
    Apply hamiltonian:                       3.633     3.633   5.4% |-|
   diagonalize:                              0.011     0.011   0.0% |
   rotate_psi:                               0.892     0.892   1.3% ||
  calc. matrices:                           10.733     3.418   5.1% |-|
   Apply hamiltonian:                        7.315     7.315  10.8% |---|
  diagonalize:                               0.025     0.025   0.0% |
  rotate_psi:                                1.671     1.671   2.5% ||
 Density:                                    2.009     0.001   0.0% |
  Atomic density matrices:                   0.039     0.039   0.1% |
  Mix:                                       1.679     1.679   2.5% ||
  Multipole moments:                         0.010     0.010   0.0% |
  Pseudo density:                            0.280     0.279   0.4% |
   Symmetrize density:                       0.001     0.001   0.0% |
 Hamiltonian:                               25.624     0.005   0.0% |
  Atomic:                                    3.008     0.046   0.1% |
   XC Correction:                            2.961     2.961   4.4% |-|
  Calculate atomic Hamiltonians:             0.308     0.308   0.5% |
  Communicate:                               0.000     0.000   0.0% |
  Hartree integrate/restrict:                1.416     1.416   2.1% ||
  Poisson:                                  11.292     0.552   0.8% |
   Communicate from 1D:                      1.124     1.124   1.7% ||
   Communicate from 2D:                      0.977     0.977   1.4% ||
   Communicate to 1D:                        1.317     1.317   1.9% ||
   Communicate to 2D:                        1.118     1.118   1.7% ||
   FFT 1D:                                   1.924     1.924   2.8% ||
   FFT 2D:                                   4.280     4.280   6.3% |--|
  XC 3D grid:                                9.112     9.112  13.5% |----|
  vbar:                                      0.483     0.483   0.7% |
 Orthonormalize:                             0.054     0.000   0.0% |
  calc_s_matrix:                             0.018     0.018   0.0% |
  inverse-cholesky:                          0.000     0.000   0.0% |
  projections:                               0.011     0.011   0.0% |
  rotate_psi_s:                              0.025     0.025   0.0% |
Set symmetry:                                0.001     0.001   0.0% |
Other:                                       4.299     4.299   6.4% |--|
-------------------------------------------------------------------
Total:                                                67.669 100.0%

Memory usage: 596.77 MiB
Date: Fri Feb  3 15:52:44 2023
