
  ___ ___ ___ _ _ _  
 |   |   |_  | | | | 
 | | | | | . | | | | 
 |__ |  _|___|_____|  22.8.0
 |___|_|             

User:   afonso@afonso-OMEN-by-HP-Laptop-15-ce0xx
Date:   Fri Feb 24 11:23:06 2023
Arch:   x86_64
Pid:    3910
CWD:    /home/afonso/Desktop/Chalmers/TIF_320/Assignment4/Task4
Python: 3.8.10
gpaw:   /home/afonso/Desktop/Chalmers/TIF_320/TIF_320_venv/lib/python3.8/site-packages/gpaw
_gpaw:  /home/afonso/Desktop/Chalmers/TIF_320/TIF_320_venv/lib/python3.8/site-packages/
        _gpaw.cpython-38-x86_64-linux-gnu.so
ase:    /home/afonso/Desktop/Chalmers/TIF_320/TIF_320_venv/lib/python3.8/site-packages/ase (version 3.22.1)
numpy:  /home/afonso/Desktop/Chalmers/TIF_320/TIF_320_venv/lib/python3.8/site-packages/numpy (version 1.24.1)
scipy:  /home/afonso/Desktop/Chalmers/TIF_320/TIF_320_venv/lib/python3.8/site-packages/scipy (version 1.10.0)
libxc:  4.3.4
units:  Angstrom and eV
cores: 1
OpenMP: False
OMP_NUM_THREADS: 1

Input parameters:
  h: 0.2
  mode: {ecut: 450.00000000000006,
         name: pw}
  xc: PBE

Input parameters:
  hund: True

System changes: positions, numbers, cell, pbc, initial_charges, initial_magmoms 

Initialize ...

species:
  O:
    name: Oxygen
    id: 32ecd46bf208036f09c70b0ec9a88b78
    Z: 8.0
    valence: 6
    core: 2
    charge: 0.0
    file: /home/afonso/Desktop/Chalmers/TIF_320/GPAW_Datasets/gpaw-setups-0.9.20000/O.PBE.gz
    compensation charges: {type: gauss,
                           rc: 0.21,
                           lmax: 2}
    cutoffs: {filter: 1.17,
              core: 0.83}
    valence states:
      #              energy  rcut
      - 2s(2.00)   -23.961   0.688
      - 2p(4.00)    -9.029   0.598
      -  s           3.251   0.688
      -  p          18.182   0.598
      -  d           0.000   0.619
  
    # Using partial waves for O as LCAO basis

Reference energy: -4081.704602  # eV

Spin-polarized calculation.
Magnetic moment: 4.000000

Convergence criteria:
 Maximum [total energy] change in last 3 cyles: 0.0005 eV / electron
 Maximum integral of absolute [dens]ity change: 0.0001 electrons / valence electron
 Maximum integral of absolute [eigenst]ate change: 4e-08 eV^2 / valence electron
 Maximum number of scf [iter]ations: 333
 (Square brackets indicate name in SCF output, whereas a 'c' in
 the SCF output indicates the quantity has converged.)

Symmetries present (total): 16

  ( 1  0  0)  ( 1  0  0)  ( 1  0  0)  ( 1  0  0)  ( 0  1  0)  ( 0  1  0)
  ( 0  1  0)  ( 0  1  0)  ( 0 -1  0)  ( 0 -1  0)  ( 1  0  0)  ( 1  0  0)
  ( 0  0  1)  ( 0  0 -1)  ( 0  0  1)  ( 0  0 -1)  ( 0  0  1)  ( 0  0 -1)

  ( 0  1  0)  ( 0  1  0)  ( 0 -1  0)  ( 0 -1  0)  ( 0 -1  0)  ( 0 -1  0)
  (-1  0  0)  (-1  0  0)  ( 1  0  0)  ( 1  0  0)  (-1  0  0)  (-1  0  0)
  ( 0  0  1)  ( 0  0 -1)  ( 0  0  1)  ( 0  0 -1)  ( 0  0  1)  ( 0  0 -1)

  (-1  0  0)  (-1  0  0)  (-1  0  0)  (-1  0  0)
  ( 0  1  0)  ( 0  1  0)  ( 0 -1  0)  ( 0 -1  0)
  ( 0  0  1)  ( 0  0 -1)  ( 0  0  1)  ( 0  0 -1)

1 k-point (Gamma)
1 k-point in the irreducible part of the Brillouin zone
       k-points in crystal coordinates                weights
   0:     0.00000000    0.00000000    0.00000000          1/1

Wave functions: Plane wave expansion
  Cutoff energy: 450.000 eV
  Number of coefficients: 37529 (reduced to 18765)
  Pulay-stress correction: 0.000000 eV/Ang^3 (de/decut=0.000000)
  Using Numpy's FFT
  ScaLapack parameters: grid=1x1, blocksize=None
  Wavefunction extrapolation:
    Improved wavefunction reuse through dual PAW basis 

Occupation numbers: # Zero width 

Eigensolver
   Davidson(niter=2) 

Densities:
  Coarse grid: 60*60*60 grid
  Fine grid: 120*120*120 grid
  Total Charge: 0.000000 

Density mixing:
  Method: difference
  Backend: pulay
  Linear mixing parameter: 0.05
  old densities: 5
  Damping of long wavelength oscillations: 50 

Hamiltonian:
  XC and Coulomb potentials evaluated on a 120*120*120 grid
  Using the PBE Exchange-Correlation functional
  External potential:
    NoExternalPotential
 

XC parameters: PBE with 2 nearest neighbor stencil

Memory estimate:
  Process memory now: 200.46 MiB
  Calculator: 181.51 MiB
    Density: 123.00 MiB
      Arrays: 57.68 MiB
      Localized functions: 42.25 MiB
      Mixer: 23.07 MiB
    Hamiltonian: 43.71 MiB
      Arrays: 42.85 MiB
      XC: 0.00 MiB
      Poisson: 0.00 MiB
      vbar: 0.86 MiB
    Wavefunctions: 14.80 MiB
      Arrays psit_nG: 4.58 MiB
      Eigensolver: 3.73 MiB
      Projections: 0.00 MiB
      Projectors: 2.00 MiB
      PW-descriptor: 4.49 MiB

Total number of cores used: 1

Number of atoms: 2
Number of atomic orbitals: 8
Number of bands in calculation: 8
Number of valence electrons: 12
Bands to converge: occupied

... initialized

Initializing position-dependent things.

Density initialized from atomic densities
Creating initial wave functions:
  8 bands from LCAO basis set

        .----------------------------.  
       /|                            |  
      / |                            |  
     /  |                            |  
    /   |                            |  
   /    |                            |  
  /     |                            |  
 *      |                            |  
 |      |                            |  
 |      |                            |  
 |      |          O                 |  
 |      |                            |  
 |      |          O                 |  
 |      |                            |  
 |      |                            |  
 |      .----------------------------.  
 |     /                            /   
 |    /                            /    
 |   /                            /     
 |  /                            /      
 | /                            /       
 |/                            /        
 *----------------------------*         

Positions:
   0 O      6.000000    6.000000    6.622978    ( 0.0000,  0.0000,  2.0000)
   1 O      6.000000    6.000000    5.377022    ( 0.0000,  0.0000,  2.0000)

Unit cell:
           periodic     x           y           z      points  spacing
  1. axis:    no    12.000000    0.000000    0.000000    60     0.2000
  2. axis:    no     0.000000   12.000000    0.000000    60     0.2000
  3. axis:    no     0.000000    0.000000   12.000000    60     0.2000

  Lengths:  12.000000  12.000000  12.000000
  Angles:   90.000000  90.000000  90.000000

Effective grid spacing dv^(1/3) = 0.2000

     iter     time        total  log10-change:  magmom
                         energy  eigst   dens
iter:   1 11:23:11    -6.567044                  +3.9996
iter:   2 11:23:14    -9.180031  -1.02  -0.92    +2.5999
iter:   3 11:23:18    -8.842784  -1.19  -0.93    +1.9769
iter:   4 11:23:21    -8.765876  -1.57  -1.33    +1.9894
iter:   5 11:23:24    -8.735850  -2.57  -1.72    +1.9995
iter:   6 11:23:27    -8.730712  -2.59  -1.97    +1.9995
iter:   7 11:23:30    -8.729463  -4.05  -2.37    +1.9998
iter:   8 11:23:34    -8.728857c -3.42  -2.52    +2.0000
iter:   9 11:23:37    -8.728703c -4.82  -2.89    +2.0000
iter:  10 11:23:40    -8.728805c -4.91  -3.14    +2.0000
iter:  11 11:23:43    -8.728665c -4.65  -2.92    +2.0000
iter:  12 11:23:47    -8.728666c -5.75  -4.27c   +2.0000
iter:  13 11:23:50    -8.728666c -6.88  -4.31c   +2.0000
iter:  14 11:23:53    -8.728667c -7.44c -4.46c   +2.0000

Converged after 14 iterations.

Dipole moment: (-0.000000, -0.000000, -0.000000) |e|*Ang

Total magnetic moment: (0.000000, 0.000000, 2.000000)
Local magnetic moments:
   0 O  ( 0.000000,  0.000000,  0.717321)
   1 O  ( 0.000000,  0.000000,  0.717321)

Energy contributions relative to reference atoms: (reference = -4081.704602)

Kinetic:         +1.565522
Potential:       -1.997360
External:        +0.000000
XC:              -8.238600
Entropy (-ST):   +0.000000
Local:           -0.058228
--------------------------
Free energy:     -8.728667
Extrapolated:    -8.728667

Spin contamination: 0.027234 electrons
                   Up                     Down
 Band  Eigenvalues  Occupancy  Eigenvalues  Occupancy
    0    -32.20435    1.00000    -30.98058    1.00000
    1    -20.87404    1.00000    -19.07328    1.00000
    2    -13.40175    1.00000    -12.50289    1.00000
    3    -13.09820    1.00000    -11.25039    1.00000
    4    -13.09816    1.00000    -11.25036    1.00000
    5     -6.96432    1.00000     -4.68047    0.00000
    6     -6.96428    1.00000     -4.68044    0.00000
    7      0.61337    0.00000      0.75431    0.00000

Fermi level: -5.82238

Gap: 2.284 eV
Transition (v -> c):
  (s=0, k=0, n=6, [0.00, 0.00, 0.00]) -> (s=1, k=0, n=5, [0.00, 0.00, 0.00])
Timing:                              incl.     excl.
-----------------------------------------------------------
Hamiltonian:                         1.621     0.011   0.0% |
 Atomic:                             0.068     0.000   0.0% |
  XC Correction:                     0.067     0.067   0.1% |
 Calculate atomic Hamiltonians:      0.040     0.040   0.1% |
 Communicate:                        0.000     0.000   0.0% |
 Initialize Hamiltonian:             0.001     0.001   0.0% |
 Poisson:                            0.009     0.009   0.0% |
 XC 3D grid:                         1.493     1.493   3.2% ||
LCAO initialization:                 0.251     0.013   0.0% |
 LCAO eigensolver:                   0.086     0.000   0.0% |
  Calculate projections:             0.000     0.000   0.0% |
  DenseAtomicCorrection:             0.000     0.000   0.0% |
  Distribute overlap matrix:         0.000     0.000   0.0% |
  Orbital Layouts:                   0.074     0.074   0.2% |
  Potential matrix:                  0.012     0.012   0.0% |
 LCAO to grid:                       0.131     0.131   0.3% |
 Set positions (LCAO WFS):           0.021     0.000   0.0% |
  Basic WFS set positions:           0.001     0.001   0.0% |
  Basis functions set positions:     0.000     0.000   0.0% |
  P tci:                             0.002     0.002   0.0% |
  ST tci:                            0.001     0.001   0.0% |
  mktci:                             0.016     0.016   0.0% |
PWDescriptor:                        0.019     0.019   0.0% |
SCF-cycle:                          43.124     0.034   0.1% |
 Davidson:                          13.469     2.229   4.8% |-|
  Apply H:                           2.528     2.504   5.4% |-|
   HMM T:                            0.024     0.024   0.1% |
  Subspace diag:                     2.310     0.003   0.0% |
   calc_h_matrix:                    2.238     0.032   0.1% |
    Apply H:                         2.206     2.183   4.7% |-|
     HMM T:                          0.022     0.022   0.0% |
   diagonalize:                      0.025     0.025   0.1% |
   rotate_psi:                       0.044     0.044   0.1% |
  calc. matrices:                    6.240     0.180   0.4% |
   Apply H:                          6.060     6.008  12.8% |----|
    HMM T:                           0.052     0.052   0.1% |
  diagonalize:                       0.063     0.063   0.1% |
  rotate_psi:                        0.099     0.099   0.2% |
 Density:                           10.779     0.000   0.0% |
  Atomic density matrices:           0.012     0.012   0.0% |
  Mix:                               4.269     4.269   9.1% |---|
  Multipole moments:                 0.001     0.001   0.0% |
  Pseudo density:                    6.496     1.415   3.0% ||
   Symmetrize density:               5.081     5.081  10.9% |---|
 Hamiltonian:                       18.807     0.140   0.3% |
  Atomic:                            0.920     0.006   0.0% |
   XC Correction:                    0.914     0.914   2.0% ||
  Calculate atomic Hamiltonians:     0.511     0.511   1.1% |
  Communicate:                       0.000     0.000   0.0% |
  Poisson:                           0.101     0.101   0.2% |
  XC 3D grid:                       17.135    17.135  36.6% |--------------|
 Orthonormalize:                     0.035     0.000   0.0% |
  calc_s_matrix:                     0.009     0.009   0.0% |
  inverse-cholesky:                  0.015     0.015   0.0% |
  projections:                       0.009     0.009   0.0% |
  rotate_psi_s:                      0.002     0.002   0.0% |
Set symmetry:                        0.006     0.006   0.0% |
Other:                               1.778     1.778   3.8% |-|
-----------------------------------------------------------
Total:                                        46.799 100.0%

Memory usage: 607.12 MiB
Date: Fri Feb 24 11:23:53 2023
