
  ___ ___ ___ _ _ _  
 |   |   |_  | | | | 
 | | | | | . | | | | 
 |__ |  _|___|_____|  22.8.0
 |___|_|             

User:   afonsos@vera07-4
Date:   Fri Feb  3 12:01:52 2023
Arch:   x86_64
Pid:    3310314
CWD:    /cephyr/users/afonsos/Vera/TIF320/Assignment2/Task8/T8_PBE/LCAO_dzp
Python: 3.10.4
gpaw:   /apps/Arch/software/GPAW/22.8.0-foss-2022a/lib/python3.10/site-packages/gpaw
_gpaw:  /apps/Arch/software/GPAW/22.8.0-foss-2022a/lib/python3.10/site-packages/
        _gpaw.cpython-310-x86_64-linux-gnu.so
ase:    /apps/Arch/software/ASE/3.22.1-foss-2022a/lib/python3.10/site-packages/ase (version 3.22.1)
numpy:  /apps/Arch/software/SciPy-bundle/2022.05-foss-2022a/lib/python3.10/site-packages/numpy (version 1.22.3)
scipy:  /apps/Arch/software/SciPy-bundle/2022.05-foss-2022a/lib/python3.10/site-packages/scipy (version 1.8.1)
libxc:  5.2.3
units:  Angstrom and eV
cores: 1
OpenMP: False
OMP_NUM_THREADS: 1

Input parameters:
  basis: dzp
  h: 0.25
  mode: lcao
  nbands: 10
  occupations: {fixmagmom: False,
                name: fermi-dirac,
                width: 0.05}
  setups: {Na: 1}
  xc: PBE

System changes: positions, numbers, cell, pbc, initial_charges, initial_magmoms 

Initialize ...

species:
  Na:
    name: Sodium
    id: 8dbce52902f3add137ce7d12431c9cac
    Z: 11.0
    valence: 1
    core: 10
    charge: 0.0
    file: /apps/Common/software/GPAW-setups/0.9.20000/Na.1.PBE.gz
    compensation charges: {type: gauss,
                           rc: 0.43,
                           lmax: 2}
    cutoffs: {filter: 2.36,
              core: 3.60}
    valence states:
      #              energy  rcut
      - 3s(1.00)    -2.744   1.349
      - 3p(0.00)    -0.743   1.349
      -  s          24.468   1.349
  
    # LCAO basis set for Na:
    #   Name: 1.dzp
    #   File: /apps/Common/software/GPAW-setups/0.9.20000/Na.1.dzp.basis.gz
    #   Number of radial functions: 3
    #   Number of spherical harmonics: 5
    #     l=0, rc=11.7656 Bohr: 3s-sz confined orbital
    #     l=0, rc=7.1094 Bohr: 3s-dz split-valence wave
    #     l=1, rc=11.7656 Bohr: p-type Gaussian polarization
    #   Number of RI-basis functions 0

Reference energy: -26511.662975  # eV

Spin-paired calculation

Convergence criteria:
 Maximum [total energy] change in last 3 cyles: 0.0005 eV / electron
 Maximum integral of absolute [dens]ity change: 0.0001 electrons / valence electron
 Maximum integral of absolute [eigenst]ate change: 4e-08 eV^2 / valence electron
 Maximum number of scf [iter]ations: 333
 (Square brackets indicate name in SCF output, whereas a 'c' in
 the SCF output indicates the quantity has converged.)

Symmetries present (total): 1

  ( 1  0  0)
  ( 0  1  0)
  ( 0  0  1)

1 k-point (Gamma)
1 k-point in the irreducible part of the Brillouin zone
       k-points in crystal coordinates                weights
   0:     0.00000000    0.00000000    0.00000000          1/1

Wave functions: LCAO
  Diagonalizer: Serial LAPACK
  Atomic Correction: dense with blas
  Data-type: float
 

Occupation numbers: Fermi-Dirac:
  width: 0.0500  # eV
 

Eigensolver
   LCAO using direct dense diagonalizer 

Densities:
  Coarse grid: 64*64*64 grid
  Fine grid: 128*128*128 grid
  Total Charge: 0.000000 

Density mixing:
  Method: separate
  Backend: pulay
  Linear mixing parameter: 0.25
  old densities: 3
  Damping of long wavelength oscillations: 1  # (no daming) 

Hamiltonian:
  XC and Coulomb potentials evaluated on a 128*128*128 grid
  Using the PBE Exchange-Correlation functional
  Interpolation: tri-quintic (5. degree polynomial)
  Poisson solver: FastPoissonSolver using
    Stencil: 6*3+1=19 point O(h^6) finite-difference Laplacian
    FFT axes: []
    FST axes: [0, 1, 2]
 

XC parameters: PBE with 2 nearest neighbor stencil

Memory estimate:
  Process memory now: 547.09 MiB
  Calculator: 127.06 MiB
    Density: 80.09 MiB
      Arrays: 50.70 MiB
      Localized functions: 17.94 MiB
      Mixer: 11.45 MiB
    Hamiltonian: 34.46 MiB
      Arrays: 33.16 MiB
      XC: 0.00 MiB
      Poisson: 0.00 MiB
      vbar: 1.29 MiB
    Wavefunctions: 12.52 MiB
      C [qnM]: 0.00 MiB
      S, T [2 x qmm]: 0.01 MiB
      P [aqMi]: 0.00 MiB
      BasisFunctions: 12.50 MiB
      Eigensolver: 0.00 MiB

Total number of cores used: 1

Number of atoms: 6
Number of atomic orbitals: 30
Number of bands in calculation: 10
Number of valence electrons: 6
Bands to converge: occupied

... initialized

Initializing position-dependent things.

Density initialized from atomic densities
           .--------------------------------------.  
          /|                                      |  
         / |                                      |  
        /  |                                      |  
       /   |                                      |  
      /    |                                      |  
     /     |                                      |  
    /      |                                      |  
   /       |                                      |  
  /        |                                      |  
 *         |                                      |  
 |         |                Na                    |  
 |         |                                      |  
 |         |                                      |  
 |         |             NaNa                     |  
 |         |                Na                    |  
 |         |                                      |  
 |         |                                      |  
 |         |          Naa                         |  
 |         |                                      |  
 |         .--------------------------------------.  
 |        /                                      /   
 |       /                                      /    
 |      /                                      /     
 |     /                                      /      
 |    /                                      /       
 |   /                                      /        
 |  /                                      /         
 | /                                      /          
 |/                                      /           
 *--------------------------------------*            

Positions:
   0 Na     9.028583    7.793906    7.808652    ( 0.0000,  0.0000,  0.0000)
   1 Na     7.913436   10.836237    7.574299    ( 0.0000,  0.0000,  0.0000)
   2 Na     7.278632    5.163763    6.995768    ( 0.0000,  0.0000,  0.0000)
   3 Na     6.971417    8.257308    5.335639    ( 0.0000,  0.0000,  0.0000)
   4 Na     8.305979    5.810149   10.290594    ( 0.0000,  0.0000,  0.0000)
   5 Na     8.678762    9.296139   10.664361    ( 0.0000,  0.0000,  0.0000)

Unit cell:
           periodic     x           y           z      points  spacing
  1. axis:    no    16.000000    0.000000    0.000000    64     0.2500
  2. axis:    no     0.000000   16.000000    0.000000    64     0.2500
  3. axis:    no     0.000000    0.000000   16.000000    64     0.2500

  Lengths:  16.000000  16.000000  16.000000
  Angles:   90.000000  90.000000  90.000000

Effective grid spacing dv^(1/3) = 0.2500

     iter     time        total  log10-change:
                         energy  eigst   dens
iter:   1 12:01:55    -4.616273       c
iter:   2 12:01:56    -4.452331       c -0.64
iter:   3 12:01:58    -4.382962       c -0.87
iter:   4 12:01:59    -4.379272       c -1.40
iter:   5 12:02:00    -4.379192       c -2.04
iter:   6 12:02:01    -4.379170c      c -2.22
iter:   7 12:02:02    -4.379169c      c -2.60
iter:   8 12:02:03    -4.379169c      c -3.07
iter:   9 12:02:04    -4.379169c      c -3.25
iter:  10 12:02:05    -4.379169c      c -4.08c

Converged after 10 iterations.

Dipole moment: (0.140574, -0.004598, -0.043414) |e|*Ang

Energy contributions relative to reference atoms: (reference = -26511.662975)

Kinetic:        +20.402388
Potential:      -17.923209
External:        +0.000000
XC:              -6.881930
Entropy (-ST):   -0.000007
Local:           +0.023585
--------------------------
Free energy:     -4.379173
Extrapolated:    -4.379169

 Band  Eigenvalues  Occupancy
    0     -4.24670    2.00000
    1     -2.97391    2.00000
    2     -2.96243    2.00000
    3     -1.64254    0.00000
    4     -1.45195    0.00000
    5     -1.43971    0.00000
    6      2.09649    0.00000
    7      2.09954    0.00000
    8      2.36018    0.00000
    9      3.43974    0.00000

Fermi level: -2.28883

Gap: 1.320 eV
Transition (v -> c):
  (s=0, k=0, n=2, [0.00, 0.00, 0.00]) -> (s=0, k=0, n=3, [0.00, 0.00, 0.00])

Forces in eV/Ang:
  0 Na    0.09716   -0.01631   -0.03210
  1 Na   -0.02076    0.09600   -0.01588
  2 Na   -0.04031   -0.08554   -0.03778
  3 Na   -0.04508    0.01820   -0.09226
  4 Na   -0.00168   -0.06560    0.08207
  5 Na    0.01163    0.05132    0.09417

System changes: positions 

Initializing position-dependent things.

Density initialized from wave functions
           .--------------------------------------.  
          /|                                      |  
         / |                                      |  
        /  |                                      |  
       /   |                                      |  
      /    |                                      |  
     /     |                                      |  
    /      |                                      |  
   /       |                                      |  
  /        |                                      |  
 *         |                                      |  
 |         |                Na                    |  
 |         |                                      |  
 |         |             Na                       |  
 |         |               Na                     |  
 |         |                Na                    |  
 |         |                                      |  
 |         |                                      |  
 |         |          Naa                         |  
 |         |                                      |  
 |         .--------------------------------------.  
 |        /                                      /   
 |       /                                      /    
 |      /                                      /     
 |     /                                      /      
 |    /                                      /       
 |   /                                      /        
 |  /                                      /         
 | /                                      /          
 |/                                      /           
 *--------------------------------------*            

Positions:
   0 Na     9.181556    7.768224    7.758117    ( 0.0000,  0.0000,  0.0000)
   1 Na     7.880751   10.987369    7.549304    ( 0.0000,  0.0000,  0.0000)
   2 Na     7.215172    5.029084    6.936294    ( 0.0000,  0.0000,  0.0000)
   3 Na     6.900446    8.285962    5.190382    ( 0.0000,  0.0000,  0.0000)
   4 Na     8.303340    5.706872   10.419808    ( 0.0000,  0.0000,  0.0000)
   5 Na     8.697076    9.376936   10.812622    ( 0.0000,  0.0000,  0.0000)

Unit cell:
           periodic     x           y           z      points  spacing
  1. axis:    no    16.000000    0.000000    0.000000    64     0.2500
  2. axis:    no     0.000000   16.000000    0.000000    64     0.2500
  3. axis:    no     0.000000    0.000000   16.000000    64     0.2500

  Lengths:  16.000000  16.000000  16.000000
  Angles:   90.000000  90.000000  90.000000

Effective grid spacing dv^(1/3) = 0.2500

     iter     time        total  log10-change:
                         energy  eigst   dens
iter:   1 12:02:07    -4.379839       c
iter:   2 12:02:08    -4.377000       c -1.52
iter:   3 12:02:09    -4.373958       c -1.68
iter:   4 12:02:10    -4.373879       c -2.39
iter:   5 12:02:11    -4.373868c      c -2.74
iter:   6 12:02:13    -4.373866c      c -3.11
iter:   7 12:02:14    -4.373866c      c -3.61
iter:   8 12:02:15    -4.373866c      c -3.89
iter:   9 12:02:16    -4.373866c      c -4.22c

Converged after 9 iterations.

Dipole moment: (0.184042, -0.012597, -0.058334) |e|*Ang

Energy contributions relative to reference atoms: (reference = -26511.662975)

Kinetic:        +13.965193
Potential:      -12.791451
External:        +0.000000
XC:              -5.566040
Entropy (-ST):   -0.000022
Local:           +0.018443
--------------------------
Free energy:     -4.373877
Extrapolated:    -4.373866

 Band  Eigenvalues  Occupancy
    0     -4.12252    2.00000
    1     -2.94351    1.99999
    2     -2.94037    1.99999
    3     -1.73826    0.00002
    4     -1.53912    0.00000
    5     -1.53313    0.00000
    6      2.51736    0.00000
    7      2.52563    0.00000
    8      2.63528    0.00000
    9      3.32963    0.00000

Fermi level: -2.32362

Gap: 1.202 eV
Transition (v -> c):
  (s=0, k=0, n=2, [0.00, 0.00, 0.00]) -> (s=0, k=0, n=3, [0.00, 0.00, 0.00])

Forces in eV/Ang:
  0 Na   -0.12621    0.01431    0.04417
  1 Na    0.02063   -0.09274    0.01293
  2 Na    0.03851    0.07468    0.02742
  3 Na    0.05448   -0.01269    0.07447
  4 Na    0.01129    0.06106   -0.06857
  5 Na    0.00393   -0.04490   -0.08892

System changes: positions 

Initializing position-dependent things.

Density initialized from wave functions
           .--------------------------------------.  
          /|                                      |  
         / |                                      |  
        /  |                                      |  
       /   |                                      |  
      /    |                                      |  
     /     |                                      |  
    /      |                                      |  
   /       |                                      |  
  /        |                                      |  
 *         |                                      |  
 |         |                Na                    |  
 |         |                                      |  
 |         |             Na                       |  
 |         |               Na                     |  
 |         |                Na                    |  
 |         |                                      |  
 |         |                                      |  
 |         |          Naa                         |  
 |         |                                      |  
 |         .--------------------------------------.  
 |        /                                      /   
 |       /                                      /    
 |      /                                      /     
 |     /                                      /      
 |    /                                      /       
 |   /                                      /        
 |  /                                      /         
 | /                                      /          
 |/                                      /           
 *--------------------------------------*            

Positions:
   0 Na     9.020602    7.777758    7.817592    ( 0.0000,  0.0000,  0.0000)
   1 Na     7.899020   10.909623    7.556025    ( 0.0000,  0.0000,  0.0000)
   2 Na     7.246715    5.078114    6.943790    ( 0.0000,  0.0000,  0.0000)
   3 Na     6.964766    8.283671    5.227795    ( 0.0000,  0.0000,  0.0000)
   4 Na     8.329287    5.754109   10.380608    ( 0.0000,  0.0000,  0.0000)
   5 Na     8.726244    9.347285   10.741600    ( 0.0000,  0.0000,  0.0000)

Unit cell:
           periodic     x           y           z      points  spacing
  1. axis:    no    16.000000    0.000000    0.000000    64     0.2500
  2. axis:    no     0.000000   16.000000    0.000000    64     0.2500
  3. axis:    no     0.000000    0.000000   16.000000    64     0.2500

  Lengths:  16.000000  16.000000  16.000000
  Angles:   90.000000  90.000000  90.000000

Effective grid spacing dv^(1/3) = 0.2500

     iter     time        total  log10-change:
                         energy  eigst   dens
iter:   1 12:02:18    -4.404590       c
iter:   2 12:02:19    -4.403396       c -1.74
iter:   3 12:02:20    -4.402531c      c -1.93
iter:   4 12:02:21    -4.402422c      c -2.39
iter:   5 12:02:22    -4.402413c      c -2.85
iter:   6 12:02:24    -4.402412c      c -3.23
iter:   7 12:02:25    -4.402412c      c -3.53
iter:   8 12:02:26    -4.402412c      c -4.08c

Converged after 8 iterations.

Dipole moment: (0.137801, -0.010749, -0.040149) |e|*Ang

Energy contributions relative to reference atoms: (reference = -26511.662975)

Kinetic:        +17.094930
Potential:      -15.300387
External:        +0.000000
XC:              -6.217019
Entropy (-ST):   -0.000008
Local:           +0.020069
--------------------------
Free energy:     -4.402416
Extrapolated:    -4.402412

 Band  Eigenvalues  Occupancy
    0     -4.17680    2.00000
    1     -2.96182    2.00000
    2     -2.95683    2.00000
    3     -1.64485    0.00001
    4     -1.50682    0.00000
    5     -1.49748    0.00000
    6      2.27787    0.00000
    7      2.29364    0.00000
    8      2.55512    0.00000
    9      3.41885    0.00000

Fermi level: -2.28746

Gap: 1.312 eV
Transition (v -> c):
  (s=0, k=0, n=2, [0.00, 0.00, 0.00]) -> (s=0, k=0, n=3, [0.00, 0.00, 0.00])

Forces in eV/Ang:
  0 Na   -0.00149   -0.00732   -0.00801
  1 Na   -0.00066    0.00411    0.00031
  2 Na    0.00280    0.00651    0.00760
  3 Na    0.00288   -0.00453    0.00255
  4 Na   -0.00344   -0.00273   -0.00671
  5 Na    0.00021    0.00270    0.00348

Writing to Na6_2nd_Lowest_E/Na6_2nd_Lowest_E.gpw (mode='all')

Timing:                                       incl.     excl.
--------------------------------------------------------------------
Basic WFS set positions:                      0.002     0.001   0.0% |
 Redistribute:                                0.001     0.001   0.0% |
Basis functions set positions:                0.112     0.112   0.3% |
Forces:                                       1.381     0.278   0.8% |
 LCAO forces:                                 1.103     0.001   0.0% |
  Atomic Hamiltonian force:                   0.004     0.004   0.0% |
  Initial:                                    0.000     0.000   0.0% |
   Get density matrix:                        0.000     0.000   0.0% |
  Paw correction:                             0.003     0.003   0.0% |
  Potential:                                  1.039     1.039   3.0% ||
  TCI derivative:                             0.056     0.056   0.2% |
  Wait for sum:                               0.000     0.000   0.0% |
LCAO WFS Initialize:                          3.154     0.040   0.1% |
 Density initialized from wave functions:     0.169     0.079   0.2% |
  Calculate density matrix:                   0.000     0.000   0.0% |
  Construct density:                          0.090     0.090   0.3% |
  Symmetrize density:                         0.000     0.000   0.0% |
 Hamiltonian:                                 2.945     0.000   0.0% |
  Atomic:                                     0.739     0.003   0.0% |
   XC Correction:                             0.736     0.736   2.2% ||
  Calculate atomic Hamiltonians:              0.014     0.014   0.0% |
  Communicate:                                0.000     0.000   0.0% |
  Hartree integrate/restrict:                 0.094     0.094   0.3% |
  Initialize Hamiltonian:                     0.002     0.002   0.0% |
  Poisson:                                    0.635     0.037   0.1% |
   Communicate from 1D:                       0.065     0.065   0.2% |
   Communicate from 2D:                       0.057     0.057   0.2% |
   Communicate to 1D:                         0.090     0.090   0.3% |
   Communicate to 2D:                         0.065     0.065   0.2% |
   FFT 1D:                                    0.098     0.098   0.3% |
   FFT 2D:                                    0.224     0.224   0.7% |
  XC 3D grid:                                 1.429     1.429   4.2% |-|
  vbar:                                       0.030     0.030   0.1% |
P tci:                                        0.023     0.023   0.1% |
Redistribute:                                 0.000     0.000   0.0% |
SCF-cycle:                                   27.222     0.019   0.1% |
 Density:                                     2.130     0.001   0.0% |
  Atomic density matrices:                    0.022     0.022   0.1% |
  Mix:                                        0.982     0.982   2.9% ||
  Multipole moments:                          0.005     0.005   0.0% |
  Normalize:                                  0.010     0.010   0.0% |
  Pseudo density:                             1.111     0.036   0.1% |
   Calculate density matrix:                  0.002     0.002   0.0% |
   Construct density:                         1.072     1.072   3.1% ||
   Symmetrize density:                        0.001     0.001   0.0% |
 Hamiltonian:                                23.599     0.003   0.0% |
  Atomic:                                     5.872     0.022   0.1% |
   XC Correction:                             5.849     5.849  17.1% |------|
  Calculate atomic Hamiltonians:              0.113     0.113   0.3% |
  Communicate:                                0.000     0.000   0.0% |
  Hartree integrate/restrict:                 0.748     0.748   2.2% ||
  Poisson:                                    5.140     0.299   0.9% |
   Communicate from 1D:                       0.526     0.526   1.5% ||
   Communicate from 2D:                       0.462     0.462   1.4% ||
   Communicate to 1D:                         0.721     0.721   2.1% ||
   Communicate to 2D:                         0.527     0.527   1.5% ||
   FFT 1D:                                    0.794     0.794   2.3% ||
   FFT 2D:                                    1.811     1.811   5.3% |-|
  XC 3D grid:                                11.481    11.481  33.6% |------------|
  vbar:                                       0.242     0.242   0.7% |
 LCAO eigensolver:                            1.474     0.002   0.0% |
  Calculate projections:                      0.001     0.001   0.0% |
  DenseAtomicCorrection:                      0.006     0.006   0.0% |
  Distribute overlap matrix:                  0.000     0.000   0.0% |
  Orbital Layouts:                            0.015     0.015   0.0% |
  Potential matrix:                           1.449     1.449   4.2% |-|
ST tci:                                       0.007     0.007   0.0% |
Set symmetry:                                 0.001     0.001   0.0% |
TCI: Evaluate splines:                        0.023     0.023   0.1% |
mktci:                                        0.005     0.005   0.0% |
Other:                                        2.234     2.234   6.5% |--|
--------------------------------------------------------------------
Total:                                                 34.163 100.0%

Memory usage: 552.18 MiB
Date: Fri Feb  3 12:02:26 2023
