
  ___ ___ ___ _ _ _  
 |   |   |_  | | | | 
 | | | | | . | | | | 
 |__ |  _|___|_____|  22.8.0
 |___|_|             

User:   afonsos@vera18-4
Date:   Fri Feb  3 00:43:35 2023
Arch:   x86_64
Pid:    3579271
CWD:    /cephyr/users/afonsos/Vera/TIF320/Assignment2/Task8/T8_LCAO_dzp
Python: 3.10.4
gpaw:   /apps/Arch/software/GPAW/22.8.0-foss-2022a/lib/python3.10/site-packages/gpaw
_gpaw:  /apps/Arch/software/GPAW/22.8.0-foss-2022a/lib/python3.10/site-packages/
        _gpaw.cpython-310-x86_64-linux-gnu.so
ase:    /apps/Arch/software/ASE/3.22.1-foss-2022a/lib/python3.10/site-packages/ase (version 3.22.1)
numpy:  /apps/Arch/software/SciPy-bundle/2022.05-foss-2022a/lib/python3.10/site-packages/numpy (version 1.22.3)
scipy:  /apps/Arch/software/SciPy-bundle/2022.05-foss-2022a/lib/python3.10/site-packages/scipy (version 1.8.1)
libxc:  5.2.3
units:  Angstrom and eV
cores: 1
OpenMP: False
OMP_NUM_THREADS: 1

Input parameters:
  basis: dzp
  h: 0.25
  mode: lcao
  nbands: 10
  occupations: {fixmagmom: False,
                name: fermi-dirac,
                width: 0.05}
  setups: {Na: 1}

System changes: positions, numbers, cell, pbc, initial_charges, initial_magmoms 

Initialize ...

species:
  Na:
    name: Sodium
    id: fa5c50181d04022fed15b2593599c257
    Z: 11.0
    valence: 1
    core: 10
    charge: 0.0
    file: /apps/Common/software/GPAW-setups/0.9.20000/Na.1.LDA.gz
    compensation charges: {type: gauss,
                           rc: 0.43,
                           lmax: 2}
    cutoffs: {filter: 2.36,
              core: 3.60}
    valence states:
      #              energy  rcut
      - 3s(1.00)    -2.819   1.349
      - 3p(0.00)    -0.774   1.349
      -  s          24.392   1.349
  
    # LCAO basis set for Na:
    #   Name: 1.dzp
    #   File: /apps/Common/software/GPAW-setups/0.9.20000/Na.1.dzp.basis.gz
    #   Number of radial functions: 3
    #   Number of spherical harmonics: 5
    #     l=0, rc=11.7656 Bohr: 3s-sz confined orbital
    #     l=0, rc=7.1094 Bohr: 3s-dz split-valence wave
    #     l=1, rc=11.7656 Bohr: p-type Gaussian polarization
    #   Number of RI-basis functions 0

Reference energy: -26392.251304  # eV

Spin-paired calculation

Convergence criteria:
 Maximum [total energy] change in last 3 cyles: 0.0005 eV / electron
 Maximum integral of absolute [dens]ity change: 0.0001 electrons / valence electron
 Maximum integral of absolute [eigenst]ate change: 4e-08 eV^2 / valence electron
 Maximum number of scf [iter]ations: 333
 (Square brackets indicate name in SCF output, whereas a 'c' in
 the SCF output indicates the quantity has converged.)

Symmetries present (total): 1

  ( 1  0  0)
  ( 0  1  0)
  ( 0  0  1)

1 k-point (Gamma)
1 k-point in the irreducible part of the Brillouin zone
       k-points in crystal coordinates                weights
   0:     0.00000000    0.00000000    0.00000000          1/1

Wave functions: LCAO
  Diagonalizer: Serial LAPACK
  Atomic Correction: dense with blas
  Data-type: float
 

Occupation numbers: Fermi-Dirac:
  width: 0.0500  # eV
 

Eigensolver
   LCAO using direct dense diagonalizer 

Densities:
  Coarse grid: 64*64*64 grid
  Fine grid: 128*128*128 grid
  Total Charge: 0.000000 

Density mixing:
  Method: separate
  Backend: pulay
  Linear mixing parameter: 0.25
  old densities: 3
  Damping of long wavelength oscillations: 1  # (no daming) 

Hamiltonian:
  XC and Coulomb potentials evaluated on a 128*128*128 grid
  Using the LDA Exchange-Correlation functional
  Interpolation: tri-quintic (5. degree polynomial)
  Poisson solver: FastPoissonSolver using
    Stencil: 6*3+1=19 point O(h^6) finite-difference Laplacian
    FFT axes: []
    FST axes: [0, 1, 2]
 

Memory estimate:
  Process memory now: 408.95 MiB
  Calculator: 127.06 MiB
    Density: 80.09 MiB
      Arrays: 50.70 MiB
      Localized functions: 17.94 MiB
      Mixer: 11.45 MiB
    Hamiltonian: 34.46 MiB
      Arrays: 33.16 MiB
      XC: 0.00 MiB
      Poisson: 0.00 MiB
      vbar: 1.29 MiB
    Wavefunctions: 12.52 MiB
      C [qnM]: 0.00 MiB
      S, T [2 x qmm]: 0.01 MiB
      P [aqMi]: 0.00 MiB
      BasisFunctions: 12.50 MiB
      Eigensolver: 0.00 MiB

Total number of cores used: 1

Number of atoms: 6
Number of atomic orbitals: 30
Number of bands in calculation: 10
Number of valence electrons: 6
Bands to converge: occupied

... initialized

Initializing position-dependent things.

Density initialized from atomic densities
           .--------------------------------------.  
          /|                                      |  
         / |                                      |  
        /  |                                      |  
       /   |                                      |  
      /    |                                      |  
     /     |                                      |  
    /      |                                      |  
   /       |                                      |  
  /        |                                      |  
 *         |                                      |  
 |         |                                      |  
 |         |              Na                      |  
 |         |                                      |  
 |         |                                      |  
 |         |         Na      Na                   |  
 |         |                                      |  
 |         |    Na      Na      Na                |  
 |         |                                      |  
 |         |                                      |  
 |         .--------------------------------------.  
 |        /                                      /   
 |       /                                      /    
 |      /                                      /     
 |     /                                      /      
 |    /                                      /       
 |   /                                      /        
 |  /                                      /         
 | /                                      /          
 |/                                      /           
 *--------------------------------------*            

Positions:
   0 Na     4.735201    5.022412    7.725387    ( 0.0000,  0.0000,  0.0000)
   1 Na     8.004541    5.282645    7.455107    ( 0.0000,  0.0000,  0.0000)
   2 Na     5.939036    8.048931    8.241991    ( 0.0000,  0.0000,  0.0000)
   3 Na    11.264799    5.829037    7.333997    ( 0.0000,  0.0000,  0.0000)
   4 Na     9.429129    8.488350    7.989561    ( 0.0000,  0.0000,  0.0000)
   5 Na     7.372253   10.977588    8.666003    ( 0.0000,  0.0000,  0.0000)

Unit cell:
           periodic     x           y           z      points  spacing
  1. axis:    no    16.000000    0.000000    0.000000    64     0.2500
  2. axis:    no     0.000000   16.000000    0.000000    64     0.2500
  3. axis:    no     0.000000    0.000000   16.000000    64     0.2500

  Lengths:  16.000000  16.000000  16.000000
  Angles:   90.000000  90.000000  90.000000

Effective grid spacing dv^(1/3) = 0.2500

     iter     time        total  log10-change:
                         energy  eigst   dens
iter:   1 00:43:37    -5.137109       c
iter:   2 00:43:37    -4.998749       c -0.64
iter:   3 00:43:38    -4.940789       c -0.84
iter:   4 00:43:38    -4.933985       c -1.24
iter:   5 00:43:39    -4.933932       c -2.08
iter:   6 00:43:39    -4.933941c      c -2.32
iter:   7 00:43:40    -4.933944c      c -2.49
iter:   8 00:43:40    -4.933943c      c -3.53
iter:   9 00:43:41    -4.933943c      c -3.74
iter:  10 00:43:41    -4.933943c      c -4.22c

Converged after 10 iterations.

Dipole moment: (-0.001093, 0.004177, 0.000278) |e|*Ang

Energy contributions relative to reference atoms: (reference = -26392.251304)

Kinetic:        +19.183050
Potential:      -17.105278
External:        +0.000000
XC:              -7.032910
Entropy (-ST):   -0.000002
Local:           +0.021196
--------------------------
Free energy:     -4.933944
Extrapolated:    -4.933943

 Band  Eigenvalues  Occupancy
    0     -4.20148    2.00000
    1     -3.13428    2.00000
    2     -3.12921    2.00000
    3     -1.62824    0.00000
    4     -1.55333    0.00000
    5     -1.54837    0.00000
    6      2.06147    0.00000
    7      2.07663    0.00000
    8      2.45615    0.00000
    9      3.38372    0.00000

Fermi level: -2.37150

Gap: 1.501 eV
Transition (v -> c):
  (s=0, k=0, n=2, [0.00, 0.00, 0.00]) -> (s=0, k=0, n=3, [0.00, 0.00, 0.00])

Forces in eV/Ang:
  0 Na   -0.00333   -0.00128    0.00011
  1 Na    0.00966    0.00652    0.00458
  2 Na   -0.00347   -0.00640   -0.00338
  3 Na   -0.00636   -0.00069   -0.00264
  4 Na    0.00174   -0.00348    0.00040
  5 Na    0.00286    0.00409    0.00222

Writing to Na6/Na6.gpw (mode='all')

Timing:                              incl.     excl.
-----------------------------------------------------------
Basic WFS set positions:             0.000     0.000   0.0% |
Basis functions set positions:       0.025     0.025   0.4% |
Forces:                              0.334     0.068   1.0% |
 LCAO forces:                        0.266     0.000   0.0% |
  Atomic Hamiltonian force:          0.001     0.001   0.0% |
  Initial:                           0.000     0.000   0.0% |
   Get density matrix:               0.000     0.000   0.0% |
  Paw correction:                    0.001     0.001   0.0% |
  Potential:                         0.253     0.253   3.7% ||
  TCI derivative:                    0.012     0.012   0.2% |
  Wait for sum:                      0.000     0.000   0.0% |
LCAO WFS Initialize:                 0.434     0.037   0.5% |
 Hamiltonian:                        0.397     0.000   0.0% |
  Atomic:                            0.052     0.001   0.0% |
   XC Correction:                    0.052     0.052   0.7% |
  Calculate atomic Hamiltonians:     0.004     0.004   0.1% |
  Communicate:                       0.000     0.000   0.0% |
  Hartree integrate/restrict:        0.025     0.025   0.4% |
  Initialize Hamiltonian:            0.000     0.000   0.0% |
  Poisson:                           0.168     0.013   0.2% |
   Communicate from 1D:              0.018     0.018   0.3% |
   Communicate from 2D:              0.016     0.016   0.2% |
   Communicate to 1D:                0.025     0.025   0.4% |
   Communicate to 2D:                0.018     0.018   0.3% |
   FFT 1D:                           0.022     0.022   0.3% |
   FFT 2D:                           0.056     0.056   0.8% |
  XC 3D grid:                        0.136     0.136   2.0% ||
  vbar:                              0.012     0.012   0.2% |
P tci:                               0.006     0.006   0.1% |
SCF-cycle:                           4.390     0.006   0.1% |
 Density:                            0.595     0.000   0.0% |
  Atomic density matrices:           0.005     0.005   0.1% |
  Mix:                               0.288     0.288   4.2% |-|
  Multipole moments:                 0.001     0.001   0.0% |
  Normalize:                         0.003     0.003   0.0% |
  Pseudo density:                    0.298     0.011   0.2% |
   Calculate density matrix:         0.001     0.001   0.0% |
   Construct density:                0.287     0.287   4.2% |-|
   Symmetrize density:               0.000     0.000   0.0% |
 Hamiltonian:                        3.407     0.001   0.0% |
  Atomic:                            0.458     0.006   0.1% |
   XC Correction:                    0.453     0.453   6.6% |--|
  Calculate atomic Hamiltonians:     0.032     0.032   0.5% |
  Communicate:                       0.000     0.000   0.0% |
  Hartree integrate/restrict:        0.213     0.213   3.1% ||
  Poisson:                           1.444     0.095   1.4% ||
   Communicate from 1D:              0.158     0.158   2.3% ||
   Communicate from 2D:              0.142     0.142   2.1% ||
   Communicate to 1D:                0.203     0.203   2.9% ||
   Communicate to 2D:                0.158     0.158   2.3% ||
   FFT 1D:                           0.199     0.199   2.9% ||
   FFT 2D:                           0.489     0.489   7.1% |--|
  XC 3D grid:                        1.185     1.185  17.2% |------|
  vbar:                              0.075     0.075   1.1% |
 LCAO eigensolver:                   0.381     0.001   0.0% |
  Calculate projections:             0.000     0.000   0.0% |
  DenseAtomicCorrection:             0.002     0.002   0.0% |
  Distribute overlap matrix:         0.000     0.000   0.0% |
  Orbital Layouts:                   0.005     0.005   0.1% |
  Potential matrix:                  0.373     0.373   5.4% |-|
ST tci:                              0.002     0.002   0.0% |
Set symmetry:                        0.001     0.001   0.0% |
TCI: Evaluate splines:               0.013     0.013   0.2% |
mktci:                               0.001     0.001   0.0% |
Other:                               1.682     1.682  24.4% |---------|
-----------------------------------------------------------
Total:                                         6.887 100.0%

Memory usage: 488.25 MiB
Date: Fri Feb  3 00:43:42 2023
