
  ___ ___ ___ _ _ _  
 |   |   |_  | | | | 
 | | | | | . | | | | 
 |__ |  _|___|_____|  22.8.0
 |___|_|             

User:   afonso@afonso-OMEN-by-HP-Laptop-15-ce0xx
Date:   Fri Feb  3 00:34:51 2023
Arch:   x86_64
Pid:    11398
CWD:    /home/afonso/Desktop/Chalmers/TIF_320/Task8/T8_FD
Python: 3.8.10
gpaw:   /home/afonso/Desktop/Chalmers/TIF_320/TIF_320_venv/lib/python3.8/site-packages/gpaw
_gpaw:  /home/afonso/Desktop/Chalmers/TIF_320/TIF_320_venv/lib/python3.8/site-packages/
        _gpaw.cpython-38-x86_64-linux-gnu.so
ase:    /home/afonso/Desktop/Chalmers/TIF_320/TIF_320_venv/lib/python3.8/site-packages/ase (version 3.22.1)
numpy:  /home/afonso/Desktop/Chalmers/TIF_320/TIF_320_venv/lib/python3.8/site-packages/numpy (version 1.24.1)
scipy:  /home/afonso/Desktop/Chalmers/TIF_320/TIF_320_venv/lib/python3.8/site-packages/scipy (version 1.10.0)
libxc:  4.3.4
units:  Angstrom and eV
cores: 1
OpenMP: False
OMP_NUM_THREADS: 1

Input parameters:
  h: 0.25
  mode: {interpolation: 3,
         name: fd,
         nn: 3}
  nbands: 10
  occupations: {fixmagmom: False,
                name: fermi-dirac,
                width: 0.05}
  setups: {Na: 1}

System changes: positions, numbers, cell, pbc, initial_charges, initial_magmoms 

Initialize ...

species:
  Na:
    name: Sodium
    id: fa5c50181d04022fed15b2593599c257
    Z: 11.0
    valence: 1
    core: 10
    charge: 0.0
    file: /home/afonso/Desktop/Chalmers/TIF_320/GPAW_Datasets/gpaw-setups-0.9.20000/Na.1.LDA.gz
    compensation charges: {type: gauss,
                           rc: 0.43,
                           lmax: 2}
    cutoffs: {filter: 2.36,
              core: 3.60}
    valence states:
      #              energy  rcut
      - 3s(1.00)    -2.819   1.349
      - 3p(0.00)    -0.774   1.349
      -  s          24.392   1.349
  
    # Using partial waves for Na as LCAO basis

Reference energy: -26392.251304  # eV

Spin-paired calculation

Convergence criteria:
 Maximum [total energy] change in last 3 cyles: 0.0005 eV / electron
 Maximum integral of absolute [dens]ity change: 0.0001 electrons / valence electron
 Maximum integral of absolute [eigenst]ate change: 4e-08 eV^2 / valence electron
 Maximum number of scf [iter]ations: 333
 (Square brackets indicate name in SCF output, whereas a 'c' in
 the SCF output indicates the quantity has converged.)

Symmetries present (total): 1

  ( 1  0  0)
  ( 0  1  0)
  ( 0  0  1)

1 k-point (Gamma)
1 k-point in the irreducible part of the Brillouin zone
       k-points in crystal coordinates                weights
   0:     0.00000000    0.00000000    0.00000000          1/1

Wave functions: Uniform real-space grid
  Kinetic energy operator: 6*3+1=19 point O(h^6) finite-difference Laplacian
  ScaLapack parameters: grid=1x1, blocksize=None
  Wavefunction extrapolation:
    Improved wavefunction reuse through dual PAW basis 

Occupation numbers: Fermi-Dirac:
  width: 0.0500  # eV
 

Eigensolver
   Davidson(niter=2) 

Densities:
  Coarse grid: 64*64*64 grid
  Fine grid: 128*128*128 grid
  Total Charge: 0.000000 

Density mixing:
  Method: separate
  Backend: pulay
  Linear mixing parameter: 0.25
  old densities: 3
  Damping of long wavelength oscillations: 1  # (no daming) 

Hamiltonian:
  XC and Coulomb potentials evaluated on a 128*128*128 grid
  Using the LDA Exchange-Correlation functional
  Interpolation: tri-quintic (5. degree polynomial)
  Poisson solver: FastPoissonSolver using
    Stencil: 6*3+1=19 point O(h^6) finite-difference Laplacian
    FFT axes: []
    FST axes: [0, 1, 2]
 

Memory estimate:
  Process memory now: 419.36 MiB
  Calculator: 163.06 MiB
    Density: 80.09 MiB
      Arrays: 50.70 MiB
      Localized functions: 17.94 MiB
      Mixer: 11.45 MiB
    Hamiltonian: 34.46 MiB
      Arrays: 33.16 MiB
      XC: 0.00 MiB
      Poisson: 0.00 MiB
      vbar: 1.29 MiB
    Wavefunctions: 48.51 MiB
      Arrays psit_nG: 19.08 MiB
      Eigensolver: 28.62 MiB
      Projections: 0.00 MiB
      Projectors: 0.81 MiB

Total number of cores used: 1

Number of atoms: 6
Number of atomic orbitals: 24
Number of bands in calculation: 10
Number of valence electrons: 6
Bands to converge: occupied

... initialized

Initializing position-dependent things.

Density initialized from atomic densities
Creating initial wave functions:
  10 bands from LCAO basis set

           .--------------------------------------.  
          /|                                      |  
         / |                                      |  
        /  |                                      |  
       /   |                                      |  
      /    |                                      |  
     /     |                                      |  
    /      |                                      |  
   /       |                                      |  
  /        |                                      |  
 *         |                                      |  
 |         |                Na                    |  
 |         |                                      |  
 |         |                                      |  
 |         |             NaNa                     |  
 |         |                Na                    |  
 |         |                                      |  
 |         |                                      |  
 |         |          Naa                         |  
 |         |                                      |  
 |         .--------------------------------------.  
 |        /                                      /   
 |       /                                      /    
 |      /                                      /     
 |     /                                      /      
 |    /                                      /       
 |   /                                      /        
 |  /                                      /         
 | /                                      /          
 |/                                      /           
 *--------------------------------------*            

Positions:
   0 Na     9.028583    7.793906    7.808652    ( 0.0000,  0.0000,  0.0000)
   1 Na     7.913436   10.836237    7.574299    ( 0.0000,  0.0000,  0.0000)
   2 Na     7.278632    5.163763    6.995768    ( 0.0000,  0.0000,  0.0000)
   3 Na     6.971417    8.257308    5.335639    ( 0.0000,  0.0000,  0.0000)
   4 Na     8.305979    5.810149   10.290594    ( 0.0000,  0.0000,  0.0000)
   5 Na     8.678762    9.296139   10.664361    ( 0.0000,  0.0000,  0.0000)

Unit cell:
           periodic     x           y           z      points  spacing
  1. axis:    no    16.000000    0.000000    0.000000    64     0.2500
  2. axis:    no     0.000000   16.000000    0.000000    64     0.2500
  3. axis:    no     0.000000    0.000000   16.000000    64     0.2500

  Lengths:  16.000000  16.000000  16.000000
  Angles:   90.000000  90.000000  90.000000

Effective grid spacing dv^(1/3) = 0.2500

     iter     time        total  log10-change:
                         energy  eigst   dens
iter:   1 00:34:54    -5.526989
iter:   2 00:34:55    -5.316147  +0.13  -0.45
iter:   3 00:34:56    -5.324280  +0.55  -0.65
iter:   4 00:34:57    -5.318227  -0.68  -1.05
iter:   5 00:34:57    -5.320413  -1.22  -1.24
iter:   6 00:34:58    -5.321049c -1.67  -1.68
iter:   7 00:34:59    -5.321083c -2.28  -1.94
iter:   8 00:35:00    -5.321060c -2.55  -2.04
iter:   9 00:35:01    -5.321010c -3.53  -2.42
iter:  10 00:35:02    -5.321016c -3.36  -2.67
iter:  11 00:35:03    -5.321017c -4.13  -3.04
iter:  12 00:35:04    -5.321018c -4.60  -3.43
iter:  13 00:35:05    -5.321019c -4.96  -3.61
iter:  14 00:35:06    -5.321019c -5.35  -4.15c
iter:  15 00:35:07    -5.321019c -5.85  -4.02c
iter:  16 00:35:08    -5.321019c -6.28  -4.20c
iter:  17 00:35:08    -5.321019c -6.58  -4.27c
iter:  18 00:35:09    -5.321019c -6.63  -4.30c
iter:  19 00:35:10    -5.321019c -7.37  -4.39c
iter:  20 00:35:11    -5.321019c -7.83c -5.22c

Converged after 20 iterations.

Dipole moment: (-0.125786, 0.012335, 0.042756) |e|*Ang

Energy contributions relative to reference atoms: (reference = -26392.251304)

Kinetic:        +11.778926
Potential:      -10.669296
External:        +0.000000
XC:              -6.423093
Entropy (-ST):   -0.000036
Local:           -0.007538
--------------------------
Free energy:     -5.321037
Extrapolated:    -5.321019

 Band  Eigenvalues  Occupancy
    0     -4.26884    2.00000
    1     -3.09981    1.99999
    2     -3.08978    1.99998
    3     -1.94002    0.00003
    4     -1.77459    0.00000
    5     -1.76638    0.00000
    6     -1.45389    0.00000
    7     -0.87657    0.00000
    8     -0.87005    0.00000
    9     -0.45470    0.00000

Fermi level: -2.50159

Gap: 1.150 eV
Transition (v -> c):
  (s=0, k=0, n=2, [0.00, 0.00, 0.00]) -> (s=0, k=0, n=3, [0.00, 0.00, 0.00])

Forces in eV/Ang:
  0 Na    0.01801   -0.00930   -0.00783
  1 Na   -0.00770   -0.01926    0.00248
  2 Na   -0.00389    0.01764    0.00269
  3 Na    0.00384    0.00160    0.01393
  4 Na   -0.00421    0.01217   -0.00626
  5 Na   -0.00574   -0.00502   -0.01008

System changes: positions 

Initializing position-dependent things.

Density initialized from wave functions
           .--------------------------------------.  
          /|                                      |  
         / |                                      |  
        /  |                                      |  
       /   |                                      |  
      /    |                                      |  
     /     |                                      |  
    /      |                                      |  
   /       |                                      |  
  /        |                                      |  
 *         |                                      |  
 |         |                Na                    |  
 |         |                                      |  
 |         |                                      |  
 |         |             NaNa                     |  
 |         |                                      |  
 |         |                Na                    |  
 |         |                                      |  
 |         |          Naa                         |  
 |         |                                      |  
 |         .--------------------------------------.  
 |        /                                      /   
 |       /                                      /    
 |      /                                      /     
 |     /                                      /      
 |    /                                      /       
 |   /                                      /        
 |  /                                      /         
 | /                                      /          
 |/                                      /           
 *--------------------------------------*            

Positions:
   0 Na     9.197535    7.706679    7.735215    ( 0.0000,  0.0000,  0.0000)
   1 Na     7.841235   10.655552    7.597550    ( 0.0000,  0.0000,  0.0000)
   2 Na     7.242158    5.329234    7.021048    ( 0.0000,  0.0000,  0.0000)
   3 Na     7.007455    8.272339    5.466364    ( 0.0000,  0.0000,  0.0000)
   4 Na     8.266456    5.924320   10.231875    ( 0.0000,  0.0000,  0.0000)
   5 Na     8.624920    9.249067   10.569744    ( 0.0000,  0.0000,  0.0000)

Unit cell:
           periodic     x           y           z      points  spacing
  1. axis:    no    16.000000    0.000000    0.000000    64     0.2500
  2. axis:    no     0.000000   16.000000    0.000000    64     0.2500
  3. axis:    no     0.000000    0.000000   16.000000    64     0.2500

  Lengths:  16.000000  16.000000  16.000000
  Angles:   90.000000  90.000000  90.000000

Effective grid spacing dv^(1/3) = 0.2500

     iter     time        total  log10-change:
                         energy  eigst   dens
iter:   1 00:35:12    -5.410091  +0.36
iter:   2 00:35:13    -5.316286  -0.65  -0.79
iter:   3 00:35:14    -5.300334  -0.96  -1.16
iter:   4 00:35:15    -5.300193  -1.23  -1.46
iter:   5 00:35:16    -5.300489c -1.80  -1.79
iter:   6 00:35:17    -5.300407c -2.80  -2.01
iter:   7 00:35:18    -5.300433c -3.22  -2.56
iter:   8 00:35:19    -5.300440c -3.60  -2.78
iter:   9 00:35:20    -5.300444c -4.05  -2.93
iter:  10 00:35:21    -5.300446c -4.59  -3.03
iter:  11 00:35:22    -5.300446c -5.00  -3.41
iter:  12 00:35:23    -5.300446c -5.35  -3.53
iter:  13 00:35:24    -5.300446c -5.87  -3.85
iter:  14 00:35:25    -5.300447c -6.43  -4.34c
iter:  15 00:35:26    -5.300447c -6.90  -4.49c
iter:  16 00:35:27    -5.300447c -7.39  -4.93c
iter:  17 00:35:28    -5.300447c -7.79c -4.93c

Converged after 17 iterations.

Dipole moment: (-0.105590, -0.007870, 0.040490) |e|*Ang

Energy contributions relative to reference atoms: (reference = -26392.251304)

Kinetic:        +14.985359
Potential:      -13.166903
External:        +0.000000
XC:              -7.111736
Entropy (-ST):   -0.000085
Local:           -0.007125
--------------------------
Free energy:     -5.300489
Extrapolated:    -5.300447

 Band  Eigenvalues  Occupancy
    0     -4.38427    2.00000
    1     -3.12774    1.99997
    2     -3.10103    1.99995
    3     -2.05669    0.00007
    4     -1.73611    0.00000
    5     -1.70572    0.00000
    6     -1.46649    0.00000
    7     -0.92786    0.00000
    8     -0.91336    0.00000
    9     -0.36751    0.00000

Fermi level: -2.56739

Gap: 1.044 eV
Transition (v -> c):
  (s=0, k=0, n=2, [0.00, 0.00, 0.00]) -> (s=0, k=0, n=3, [0.00, 0.00, 0.00])

Forces in eV/Ang:
  0 Na    0.08579    0.04457    0.01897
  1 Na    0.00260    0.10140    0.01480
  2 Na   -0.04442   -0.12258   -0.01235
  3 Na   -0.05310    0.01028   -0.11479
  4 Na   -0.00684   -0.06787    0.05120
  5 Na    0.01721    0.03599    0.04087

System changes: positions 

Initializing position-dependent things.

Density initialized from wave functions
           .--------------------------------------.  
          /|                                      |  
         / |                                      |  
        /  |                                      |  
       /   |                                      |  
      /    |                                      |  
     /     |                                      |  
    /      |                                      |  
   /       |                                      |  
  /        |                                      |  
 *         |                                      |  
 |         |                Na                    |  
 |         |                                      |  
 |         |             Na                       |  
 |         |               Na                     |  
 |         |                                      |  
 |         |                 Na                   |  
 |         |                                      |  
 |         |          Naa                         |  
 |         |                                      |  
 |         .--------------------------------------.  
 |        /                                      /   
 |       /                                      /    
 |      /                                      /     
 |     /                                      /      
 |    /                                      /       
 |   /                                      /        
 |  /                                      /         
 | /                                      /          
 |/                                      /           
 *--------------------------------------*            

Positions:
   0 Na     9.471775    7.735915    7.724166    ( 0.0000,  0.0000,  0.0000)
   1 Na     7.799513   10.733553    7.641051    ( 0.0000,  0.0000,  0.0000)
   2 Na     7.133162    5.200681    7.013673    ( 0.0000,  0.0000,  0.0000)
   3 Na     6.928708    8.301821    5.330299    ( 0.0000,  0.0000,  0.0000)
   4 Na     8.227726    5.867730   10.292292    ( 0.0000,  0.0000,  0.0000)
   5 Na     8.623161    9.287783   10.587070    ( 0.0000,  0.0000,  0.0000)

Unit cell:
           periodic     x           y           z      points  spacing
  1. axis:    no    16.000000    0.000000    0.000000    64     0.2500
  2. axis:    no     0.000000   16.000000    0.000000    64     0.2500
  3. axis:    no     0.000000    0.000000   16.000000    64     0.2500

  Lengths:  16.000000  16.000000  16.000000
  Angles:   90.000000  90.000000  90.000000

Effective grid spacing dv^(1/3) = 0.2500

     iter     time        total  log10-change:
                         energy  eigst   dens
iter:   1 00:35:29    -5.333718  +0.54
iter:   2 00:35:30    -5.292751  -0.46  -0.89
iter:   3 00:35:31    -5.275214  -1.24  -1.13
iter:   4 00:35:32    -5.273742  -1.01  -1.40
iter:   5 00:35:33    -5.274272c -1.71  -1.84
iter:   6 00:35:34    -5.274534c -2.61  -1.93
iter:   7 00:35:35    -5.274477c -3.15  -2.24
iter:   8 00:35:36    -5.274473c -2.74  -2.40
iter:   9 00:35:37    -5.274485c -3.47  -2.90
iter:  10 00:35:38    -5.274489c -3.95  -3.07
iter:  11 00:35:39    -5.274491c -4.30  -3.25
iter:  12 00:35:40    -5.274492c -4.67  -3.53
iter:  13 00:35:41    -5.274492c -5.22  -3.60
iter:  14 00:35:42    -5.274492c -5.64  -3.72
iter:  15 00:35:44    -5.274492c -5.74  -3.83
iter:  16 00:35:45    -5.274492c -6.60  -3.99
iter:  17 00:35:46    -5.274492c -7.01  -4.81c
iter:  18 00:35:47    -5.274492c -7.38  -4.94c
iter:  19 00:35:48    -5.274492c -7.77c -5.19c

Converged after 19 iterations.

Dipole moment: (-0.047268, -0.005617, 0.033673) |e|*Ang

Energy contributions relative to reference atoms: (reference = -26392.251304)

Kinetic:         +9.241012
Potential:       -8.623676
External:        +0.000000
XC:              -5.885234
Entropy (-ST):   -0.000237
Local:           -0.006475
--------------------------
Free energy:     -5.274611
Extrapolated:    -5.274492

 Band  Eigenvalues  Occupancy
    0     -4.25518    2.00000
    1     -3.07491    1.99989
    2     -3.06823    1.99988
    3     -2.12860    0.00023
    4     -1.76651    0.00000
    5     -1.72724    0.00000
    6     -1.40946    0.00000
    7     -0.96814    0.00000
    8     -0.96370    0.00000
    9     -0.42580    0.00000

Fermi level: -2.58273

Gap: 0.940 eV
Transition (v -> c):
  (s=0, k=0, n=2, [0.00, 0.00, 0.00]) -> (s=0, k=0, n=3, [0.00, 0.00, 0.00])

Forces in eV/Ang:
  0 Na   -0.22951   -0.01049    0.00881
  1 Na    0.02883   -0.04474   -0.03694
  2 Na    0.07799    0.10570    0.02388
  3 Na    0.07606   -0.04198    0.08339
  4 Na    0.02120    0.01901   -0.07388
  5 Na    0.02638   -0.02632   -0.00781

System changes: positions 

Initializing position-dependent things.

Density initialized from wave functions
           .--------------------------------------.  
          /|                                      |  
         / |                                      |  
        /  |                                      |  
       /   |                                      |  
      /    |                                      |  
     /     |                                      |  
    /      |                                      |  
   /       |                                      |  
  /        |                                      |  
 *         |                                      |  
 |         |                Na                    |  
 |         |                                      |  
 |         |                                      |  
 |         |             NaNa                     |  
 |         |                Na                    |  
 |         |                                      |  
 |         |                                      |  
 |         |          Naa                         |  
 |         |                                      |  
 |         .--------------------------------------.  
 |        /                                      /   
 |       /                                      /    
 |      /                                      /     
 |     /                                      /      
 |    /                                      /       
 |   /                                      /        
 |  /                                      /         
 | /                                      /          
 |/                                      /           
 *--------------------------------------*            

Positions:
   0 Na     9.179870    7.760492    7.764515    ( 0.0000,  0.0000,  0.0000)
   1 Na     7.859717   10.764519    7.595907    ( 0.0000,  0.0000,  0.0000)
   2 Na     7.226367    5.230014    7.021307    ( 0.0000,  0.0000,  0.0000)
   3 Na     6.983146    8.259365    5.360146    ( 0.0000,  0.0000,  0.0000)
   4 Na     8.267692    5.842942   10.252853    ( 0.0000,  0.0000,  0.0000)
   5 Na     8.665817    9.281712   10.619110    ( 0.0000,  0.0000,  0.0000)

Unit cell:
           periodic     x           y           z      points  spacing
  1. axis:    no    16.000000    0.000000    0.000000    64     0.2500
  2. axis:    no     0.000000   16.000000    0.000000    64     0.2500
  3. axis:    no     0.000000    0.000000   16.000000    64     0.2500

  Lengths:  16.000000  16.000000  16.000000
  Angles:   90.000000  90.000000  90.000000

Effective grid spacing dv^(1/3) = 0.2500

     iter     time        total  log10-change:
                         energy  eigst   dens
iter:   1 00:35:49    -5.336898  +0.19
iter:   2 00:35:50    -5.323515  -0.74  -1.09
iter:   3 00:35:51    -5.323085  -1.39  -1.41
iter:   4 00:35:52    -5.323712c -1.77  -1.57
iter:   5 00:35:53    -5.323984c -2.24  -1.97
iter:   6 00:35:54    -5.324026c -2.90  -2.25
iter:   7 00:35:55    -5.324043c -3.39  -2.57
iter:   8 00:35:56    -5.324049c -3.89  -2.90
iter:   9 00:35:57    -5.324052c -4.23  -3.03
iter:  10 00:35:58    -5.324053c -4.62  -3.39
iter:  11 00:35:59    -5.324053c -5.10  -3.61
iter:  12 00:36:00    -5.324053c -5.62  -3.86
iter:  13 00:36:01    -5.324053c -6.11  -4.39c
iter:  14 00:36:02    -5.324053c -6.54  -4.42c
iter:  15 00:36:03    -5.324053c -6.94  -4.59c
iter:  16 00:36:04    -5.324053c -7.34  -5.05c
iter:  17 00:36:06    -5.324053c -7.76c -5.16c

Converged after 17 iterations.

Dipole moment: (-0.110008, 0.007870, 0.041651) |e|*Ang

Energy contributions relative to reference atoms: (reference = -26392.251304)

Kinetic:        +12.109210
Potential:      -10.918861
External:        +0.000000
XC:              -6.507347
Entropy (-ST):   -0.000067
Local:           -0.007022
--------------------------
Free energy:     -5.324087
Extrapolated:    -5.324053

 Band  Eigenvalues  Occupancy
    0     -4.30011    2.00000
    1     -3.09838    1.99997
    2     -3.09422    1.99997
    3     -2.01363    0.00006
    4     -1.75675    0.00000
    5     -1.74475    0.00000
    6     -1.44688    0.00000
    7     -0.91196    0.00000
    8     -0.90556    0.00000
    9     -0.42874    0.00000

Fermi level: -2.53787

Gap: 1.081 eV
Transition (v -> c):
  (s=0, k=0, n=2, [0.00, 0.00, 0.00]) -> (s=0, k=0, n=3, [0.00, 0.00, 0.00])

Forces in eV/Ang:
  0 Na   -0.01562    0.00574   -0.00577
  1 Na    0.00347   -0.00438   -0.00351
  2 Na    0.00145   -0.00033   -0.00670
  3 Na    0.00659    0.00109    0.00391
  4 Na    0.00358    0.00069    0.00898
  5 Na    0.00382   -0.00361    0.00131

Writing to Na6_2nd_Lowest_E/Na6_2nd_Lowest_E.gpw (mode='all')

Timing:                                      incl.     excl.
-------------------------------------------------------------------
Density initialized from wave functions:     0.067     0.067   0.1% |
 Symmetrize density:                         0.000     0.000   0.0% |
Forces:                                      0.451     0.451   0.6% |
Hamiltonian:                                 1.305     0.000   0.0% |
 Atomic:                                     0.127     0.002   0.0% |
  XC Correction:                             0.125     0.125   0.2% |
 Calculate atomic Hamiltonians:              0.013     0.013   0.0% |
 Communicate:                                0.000     0.000   0.0% |
 Hartree integrate/restrict:                 0.069     0.069   0.1% |
 Initialize Hamiltonian:                     0.000     0.000   0.0% |
 Poisson:                                    0.594     0.034   0.0% |
  Communicate from 1D:                       0.057     0.057   0.1% |
  Communicate from 2D:                       0.050     0.050   0.1% |
  Communicate to 1D:                         0.071     0.071   0.1% |
  Communicate to 2D:                         0.059     0.059   0.1% |
  FFT 1D:                                    0.099     0.099   0.1% |
  FFT 2D:                                    0.224     0.224   0.3% |
 XC 3D grid:                                 0.474     0.474   0.6% |
 vbar:                                       0.027     0.027   0.0% |
LCAO initialization:                         0.073     0.006   0.0% |
 LCAO eigensolver:                           0.025     0.000   0.0% |
  Calculate projections:                     0.000     0.000   0.0% |
  DenseAtomicCorrection:                     0.000     0.000   0.0% |
  Distribute overlap matrix:                 0.000     0.000   0.0% |
  Orbital Layouts:                           0.009     0.009   0.0% |
  Potential matrix:                          0.016     0.016   0.0% |
 LCAO to grid:                               0.023     0.023   0.0% |
 Set positions (LCAO WFS):                   0.019     0.004   0.0% |
  Basic WFS set positions:                   0.000     0.000   0.0% |
  Basis functions set positions:             0.000     0.000   0.0% |
  P tci:                                     0.010     0.010   0.0% |
  ST tci:                                    0.003     0.003   0.0% |
  mktci:                                     0.002     0.002   0.0% |
Redistribute:                                0.001     0.001   0.0% |
SCF-cycle:                                  70.651     0.045   0.1% |
 Davidson:                                  40.050    19.450  26.2% |---------|
  Apply hamiltonian:                         3.744     3.744   5.0% |-|
  Subspace diag:                             4.942     0.005   0.0% |
   calc_h_matrix:                            3.975     0.521   0.7% |
    Apply hamiltonian:                       3.454     3.454   4.7% |-|
   diagonalize:                              0.015     0.015   0.0% |
   rotate_psi:                               0.947     0.947   1.3% ||
  calc. matrices:                           10.125     3.198   4.3% |-|
   Apply hamiltonian:                        6.927     6.927   9.3% |---|
  diagonalize:                               0.039     0.039   0.1% |
  rotate_psi:                                1.750     1.750   2.4% ||
 Density:                                    4.950     0.001   0.0% |
  Atomic density matrices:                   0.038     0.038   0.1% |
  Mix:                                       4.607     4.607   6.2% |-|
  Multipole moments:                         0.010     0.010   0.0% |
  Pseudo density:                            0.293     0.292   0.4% |
   Symmetrize density:                       0.001     0.001   0.0% |
 Hamiltonian:                               25.537     0.005   0.0% |
  Atomic:                                    2.383     0.040   0.1% |
   XC Correction:                            2.343     2.343   3.2% ||
  Calculate atomic Hamiltonians:             0.250     0.250   0.3% |
  Communicate:                               0.000     0.000   0.0% |
  Hartree integrate/restrict:                1.389     1.389   1.9% ||
  Poisson:                                  10.522     0.508   0.7% |
   Communicate from 1D:                      1.033     1.033   1.4% ||
   Communicate from 2D:                      0.910     0.910   1.2% |
   Communicate to 1D:                        1.204     1.204   1.6% ||
   Communicate to 2D:                        1.037     1.037   1.4% ||
   FFT 1D:                                   1.831     1.831   2.5% ||
   FFT 2D:                                   3.999     3.999   5.4% |-|
  XC 3D grid:                               10.266    10.266  13.8% |-----|
  vbar:                                      0.721     0.721   1.0% |
 Orthonormalize:                             0.069     0.000   0.0% |
  calc_s_matrix:                             0.023     0.023   0.0% |
  inverse-cholesky:                          0.000     0.000   0.0% |
  projections:                               0.012     0.012   0.0% |
  rotate_psi_s:                              0.034     0.034   0.0% |
Set symmetry:                                0.001     0.001   0.0% |
Other:                                       1.729     1.729   2.3% ||
-------------------------------------------------------------------
Total:                                                74.279 100.0%

Memory usage: 421.40 MiB
Date: Fri Feb  3 00:36:06 2023
