
  ___ ___ ___ _ _ _  
 |   |   |_  | | | | 
 | | | | | . | | | | 
 |__ |  _|___|_____|  22.8.0
 |___|_|             

User:   afonsos@vera07-4
Date:   Fri Feb  3 11:58:59 2023
Arch:   x86_64
Pid:    3310314
CWD:    /cephyr/users/afonsos/Vera/TIF320/Assignment2/Task8/T8_PBE/LCAO_dzp
Python: 3.10.4
gpaw:   /apps/Arch/software/GPAW/22.8.0-foss-2022a/lib/python3.10/site-packages/gpaw
_gpaw:  /apps/Arch/software/GPAW/22.8.0-foss-2022a/lib/python3.10/site-packages/
        _gpaw.cpython-310-x86_64-linux-gnu.so
ase:    /apps/Arch/software/ASE/3.22.1-foss-2022a/lib/python3.10/site-packages/ase (version 3.22.1)
numpy:  /apps/Arch/software/SciPy-bundle/2022.05-foss-2022a/lib/python3.10/site-packages/numpy (version 1.22.3)
scipy:  /apps/Arch/software/SciPy-bundle/2022.05-foss-2022a/lib/python3.10/site-packages/scipy (version 1.8.1)
libxc:  5.2.3
units:  Angstrom and eV
cores: 1
OpenMP: False
OMP_NUM_THREADS: 1

Input parameters:
  basis: dzp
  h: 0.25
  mode: lcao
  nbands: 10
  occupations: {fixmagmom: False,
                name: fermi-dirac,
                width: 0.05}
  setups: {Na: 1}
  xc: PBE

System changes: positions, numbers, cell, pbc, initial_charges, initial_magmoms 

Initialize ...

species:
  Na:
    name: Sodium
    id: 8dbce52902f3add137ce7d12431c9cac
    Z: 11.0
    valence: 1
    core: 10
    charge: 0.0
    file: /apps/Common/software/GPAW-setups/0.9.20000/Na.1.PBE.gz
    compensation charges: {type: gauss,
                           rc: 0.43,
                           lmax: 2}
    cutoffs: {filter: 2.36,
              core: 3.60}
    valence states:
      #              energy  rcut
      - 3s(1.00)    -2.744   1.349
      - 3p(0.00)    -0.743   1.349
      -  s          24.468   1.349
  
    # LCAO basis set for Na:
    #   Name: 1.dzp
    #   File: /apps/Common/software/GPAW-setups/0.9.20000/Na.1.dzp.basis.gz
    #   Number of radial functions: 3
    #   Number of spherical harmonics: 5
    #     l=0, rc=11.7656 Bohr: 3s-sz confined orbital
    #     l=0, rc=7.1094 Bohr: 3s-dz split-valence wave
    #     l=1, rc=11.7656 Bohr: p-type Gaussian polarization
    #   Number of RI-basis functions 0

Reference energy: -26511.662975  # eV

Spin-paired calculation

Convergence criteria:
 Maximum [total energy] change in last 3 cyles: 0.0005 eV / electron
 Maximum integral of absolute [dens]ity change: 0.0001 electrons / valence electron
 Maximum integral of absolute [eigenst]ate change: 4e-08 eV^2 / valence electron
 Maximum number of scf [iter]ations: 333
 (Square brackets indicate name in SCF output, whereas a 'c' in
 the SCF output indicates the quantity has converged.)

Symmetries present (total): 1

  ( 1  0  0)
  ( 0  1  0)
  ( 0  0  1)

1 k-point (Gamma)
1 k-point in the irreducible part of the Brillouin zone
       k-points in crystal coordinates                weights
   0:     0.00000000    0.00000000    0.00000000          1/1

Wave functions: LCAO
  Diagonalizer: Serial LAPACK
  Atomic Correction: dense with blas
  Data-type: float
 

Occupation numbers: Fermi-Dirac:
  width: 0.0500  # eV
 

Eigensolver
   LCAO using direct dense diagonalizer 

Densities:
  Coarse grid: 64*64*64 grid
  Fine grid: 128*128*128 grid
  Total Charge: 0.000000 

Density mixing:
  Method: separate
  Backend: pulay
  Linear mixing parameter: 0.25
  old densities: 3
  Damping of long wavelength oscillations: 1  # (no daming) 

Hamiltonian:
  XC and Coulomb potentials evaluated on a 128*128*128 grid
  Using the PBE Exchange-Correlation functional
  Interpolation: tri-quintic (5. degree polynomial)
  Poisson solver: FastPoissonSolver using
    Stencil: 6*3+1=19 point O(h^6) finite-difference Laplacian
    FFT axes: []
    FST axes: [0, 1, 2]
 

XC parameters: PBE with 2 nearest neighbor stencil

Memory estimate:
  Process memory now: 413.53 MiB
  Calculator: 127.06 MiB
    Density: 80.09 MiB
      Arrays: 50.70 MiB
      Localized functions: 17.94 MiB
      Mixer: 11.45 MiB
    Hamiltonian: 34.46 MiB
      Arrays: 33.16 MiB
      XC: 0.00 MiB
      Poisson: 0.00 MiB
      vbar: 1.29 MiB
    Wavefunctions: 12.52 MiB
      C [qnM]: 0.00 MiB
      S, T [2 x qmm]: 0.01 MiB
      P [aqMi]: 0.00 MiB
      BasisFunctions: 12.50 MiB
      Eigensolver: 0.00 MiB

Total number of cores used: 1

Number of atoms: 6
Number of atomic orbitals: 30
Number of bands in calculation: 10
Number of valence electrons: 6
Bands to converge: occupied

... initialized

Initializing position-dependent things.

Density initialized from atomic densities
           .--------------------------------------.  
          /|                                      |  
         / |                                      |  
        /  |                                      |  
       /   |                                      |  
      /    |                                      |  
     /     |                                      |  
    /      |                                      |  
   /       |                                      |  
  /        |                                      |  
 *         |                                      |  
 |         |                                      |  
 |         |              Na                      |  
 |         |                                      |  
 |         |                                      |  
 |         |         Na      Na                   |  
 |         |                                      |  
 |         |    Na      Na      Na                |  
 |         |                                      |  
 |         |                                      |  
 |         .--------------------------------------.  
 |        /                                      /   
 |       /                                      /    
 |      /                                      /     
 |     /                                      /      
 |    /                                      /       
 |   /                                      /        
 |  /                                      /         
 | /                                      /          
 |/                                      /           
 *--------------------------------------*            

Positions:
   0 Na     4.735201    5.022412    7.725387    ( 0.0000,  0.0000,  0.0000)
   1 Na     8.004541    5.282645    7.455107    ( 0.0000,  0.0000,  0.0000)
   2 Na     5.939036    8.048931    8.241991    ( 0.0000,  0.0000,  0.0000)
   3 Na    11.264799    5.829037    7.333997    ( 0.0000,  0.0000,  0.0000)
   4 Na     9.429129    8.488350    7.989561    ( 0.0000,  0.0000,  0.0000)
   5 Na     7.372253   10.977588    8.666003    ( 0.0000,  0.0000,  0.0000)

Unit cell:
           periodic     x           y           z      points  spacing
  1. axis:    no    16.000000    0.000000    0.000000    64     0.2500
  2. axis:    no     0.000000   16.000000    0.000000    64     0.2500
  3. axis:    no     0.000000    0.000000   16.000000    64     0.2500

  Lengths:  16.000000  16.000000  16.000000
  Angles:   90.000000  90.000000  90.000000

Effective grid spacing dv^(1/3) = 0.2500

     iter     time        total  log10-change:
                         energy  eigst   dens
iter:   1 11:59:02    -4.654218       c
iter:   2 11:59:03    -4.515686       c -0.66
iter:   3 11:59:04    -4.459866       c -0.86
iter:   4 11:59:05    -4.453758       c -1.25
iter:   5 11:59:06    -4.453750       c -2.12
iter:   6 11:59:08    -4.453769c      c -2.31
iter:   7 11:59:09    -4.453777c      c -2.52
iter:   8 11:59:10    -4.453776c      c -3.33
iter:   9 11:59:11    -4.453776c      c -3.55
iter:  10 11:59:12    -4.453776c      c -4.22c

Converged after 10 iterations.

Dipole moment: (-0.001013, 0.004127, 0.000174) |e|*Ang

Energy contributions relative to reference atoms: (reference = -26511.662975)

Kinetic:        +19.401096
Potential:      -17.243758
External:        +0.000000
XC:              -6.630720
Entropy (-ST):   -0.000002
Local:           +0.019607
--------------------------
Free energy:     -4.453777
Extrapolated:    -4.453776

 Band  Eigenvalues  Occupancy
    0     -4.09725    2.00000
    1     -3.02912    2.00000
    2     -3.02431    2.00000
    3     -1.51993    0.00000
    4     -1.44438    0.00000
    5     -1.43937    0.00000
    6      2.23837    0.00000
    7      2.25349    0.00000
    8      2.63573    0.00000
    9      3.55877    0.00000

Fermi level: -2.26474

Gap: 1.504 eV
Transition (v -> c):
  (s=0, k=0, n=2, [0.00, 0.00, 0.00]) -> (s=0, k=0, n=3, [0.00, 0.00, 0.00])

Forces in eV/Ang:
  0 Na   -0.08643   -0.06157   -0.00452
  1 Na    0.01805   -0.05879   -0.01153
  2 Na   -0.06535    0.01831    0.00870
  3 Na    0.08686   -0.04028   -0.01746
  4 Na    0.05657    0.03663    0.00277
  5 Na   -0.00819    0.10426    0.02307

System changes: positions 

Initializing position-dependent things.

Density initialized from wave functions
           .--------------------------------------.  
          /|                                      |  
         / |                                      |  
        /  |                                      |  
       /   |                                      |  
      /    |                                      |  
     /     |                                      |  
    /      |                                      |  
   /       |                                      |  
  /        |                                      |  
 *         |                                      |  
 |         |                                      |  
 |         |              Na                      |  
 |         |                                      |  
 |         |                                      |  
 |         |        Na        Na                  |  
 |         |                                      |  
 |         |   Na       Na      Na                |  
 |         |                                      |  
 |         |                                      |  
 |         .--------------------------------------.  
 |        /                                      /   
 |       /                                      /    
 |      /                                      /     
 |     /                                      /      
 |    /                                      /       
 |   /                                      /        
 |  /                                      /         
 | /                                      /          
 |/                                      /           
 *--------------------------------------*            

Positions:
   0 Na     4.572882    4.906784    7.716904    ( 0.0000,  0.0000,  0.0000)
   1 Na     8.038433    5.172233    7.433449    ( 0.0000,  0.0000,  0.0000)
   2 Na     5.816295    8.083324    8.258322    ( 0.0000,  0.0000,  0.0000)
   3 Na    11.427928    5.753391    7.301208    ( 0.0000,  0.0000,  0.0000)
   4 Na     9.535362    8.557150    7.994764    ( 0.0000,  0.0000,  0.0000)
   5 Na     7.356865   11.173399    8.709325    ( 0.0000,  0.0000,  0.0000)

Unit cell:
           periodic     x           y           z      points  spacing
  1. axis:    no    16.000000    0.000000    0.000000    64     0.2500
  2. axis:    no     0.000000   16.000000    0.000000    64     0.2500
  3. axis:    no     0.000000    0.000000   16.000000    64     0.2500

  Lengths:  16.000000  16.000000  16.000000
  Angles:   90.000000  90.000000  90.000000

Effective grid spacing dv^(1/3) = 0.2500

     iter     time        total  log10-change:
                         energy  eigst   dens
iter:   1 11:59:14    -4.465847       c
iter:   2 11:59:15    -4.463256       c -1.55
iter:   3 11:59:16    -4.461348       c -1.74
iter:   4 11:59:17    -4.461067c      c -2.15
iter:   5 11:59:18    -4.461064c      c -2.75
iter:   6 11:59:19    -4.461062c      c -2.90
iter:   7 11:59:20    -4.461062c      c -3.41
iter:   8 11:59:21    -4.461062c      c -3.98
iter:   9 11:59:22    -4.461062c      c -4.15c

Converged after 9 iterations.

Dipole moment: (0.008353, -0.004998, -0.002671) |e|*Ang

Energy contributions relative to reference atoms: (reference = -26511.662975)

Kinetic:        +14.120677
Potential:      -13.049753
External:        +0.000000
XC:              -5.547827
Entropy (-ST):   -0.000003
Local:           +0.015842
--------------------------
Free energy:     -4.461064
Extrapolated:    -4.461062

 Band  Eigenvalues  Occupancy
    0     -3.99246    2.00000
    1     -3.02686    2.00000
    2     -3.01601    2.00000
    3     -1.57241    0.00000
    4     -1.53316    0.00000
    5     -1.52160    0.00000
    6      2.56152    0.00000
    7      2.59851    0.00000
    8      2.78223    0.00000
    9      3.53008    0.00000

Fermi level: -2.29439

Gap: 1.444 eV
Transition (v -> c):
  (s=0, k=0, n=2, [0.00, 0.00, 0.00]) -> (s=0, k=0, n=3, [0.00, 0.00, 0.00])

Forces in eV/Ang:
  0 Na    0.06342    0.03918    0.00208
  1 Na   -0.02566    0.04464    0.01638
  2 Na    0.04910   -0.00875   -0.00956
  3 Na   -0.04977    0.02340    0.00523
  4 Na   -0.04935   -0.01761    0.00238
  5 Na    0.00912   -0.07944   -0.01487

System changes: positions 

Initializing position-dependent things.

Density initialized from wave functions
           .--------------------------------------.  
          /|                                      |  
         / |                                      |  
        /  |                                      |  
       /   |                                      |  
      /    |                                      |  
     /     |                                      |  
    /      |                                      |  
   /       |                                      |  
  /        |                                      |  
 *         |                                      |  
 |         |                                      |  
 |         |              Na                      |  
 |         |                                      |  
 |         |                                      |  
 |         |        Na       Na                   |  
 |         |                                      |  
 |         |   Na       Na      Na                |  
 |         |                                      |  
 |         |                                      |  
 |         .--------------------------------------.  
 |        /                                      /   
 |       /                                      /    
 |      /                                      /     
 |     /                                      /      
 |    /                                      /       
 |   /                                      /        
 |  /                                      /         
 | /                                      /          
 |/                                      /           
 *--------------------------------------*            

Positions:
   0 Na     4.655655    4.943527    7.716640    ( 0.0000,  0.0000,  0.0000)
   1 Na     7.975108    5.234127    7.473835    ( 0.0000,  0.0000,  0.0000)
   2 Na     5.883130    8.083146    8.238212    ( 0.0000,  0.0000,  0.0000)
   3 Na    11.396496    5.769161    7.289832    ( 0.0000,  0.0000,  0.0000)
   4 Na     9.452109    8.556415    8.008479    ( 0.0000,  0.0000,  0.0000)
   5 Na     7.376244   11.062650    8.694872    ( 0.0000,  0.0000,  0.0000)

Unit cell:
           periodic     x           y           z      points  spacing
  1. axis:    no    16.000000    0.000000    0.000000    64     0.2500
  2. axis:    no     0.000000   16.000000    0.000000    64     0.2500
  3. axis:    no     0.000000    0.000000   16.000000    64     0.2500

  Lengths:  16.000000  16.000000  16.000000
  Angles:   90.000000  90.000000  90.000000

Effective grid spacing dv^(1/3) = 0.2500

     iter     time        total  log10-change:
                         energy  eigst   dens
iter:   1 11:59:24    -4.475061       c
iter:   2 11:59:25    -4.470659       c -1.52
iter:   3 11:59:26    -4.469962       c -1.92
iter:   4 11:59:27    -4.469706c      c -2.15
iter:   5 11:59:28    -4.469700c      c -2.76
iter:   6 11:59:29    -4.469698c      c -3.02
iter:   7 11:59:31    -4.469698c      c -3.45
iter:   8 11:59:32    -4.469698c      c -3.70
iter:   9 11:59:33    -4.469698c      c -4.04c

Converged after 9 iterations.

Dipole moment: (-0.029905, 0.019980, 0.006321) |e|*Ang

Energy contributions relative to reference atoms: (reference = -26511.662975)

Kinetic:        +16.373887
Potential:      -14.839012
External:        +0.000000
XC:              -6.021556
Entropy (-ST):   -0.000003
Local:           +0.016985
--------------------------
Free energy:     -4.469699
Extrapolated:    -4.469698

 Band  Eigenvalues  Occupancy
    0     -4.04402    2.00000
    1     -3.04484    2.00000
    2     -2.99920    2.00000
    3     -1.56293    0.00000
    4     -1.50213    0.00000
    5     -1.46319    0.00000
    6      2.35060    0.00000
    7      2.46366    0.00000
    8      2.73213    0.00000
    9      3.57204    0.00000

Fermi level: -2.28161

Gap: 1.436 eV
Transition (v -> c):
  (s=0, k=0, n=2, [0.00, 0.00, 0.00]) -> (s=0, k=0, n=3, [0.00, 0.00, 0.00])

Forces in eV/Ang:
  0 Na   -0.02317    0.01005    0.00459
  1 Na    0.07490    0.00678   -0.00442
  2 Na   -0.02582   -0.01868   -0.00148
  3 Na   -0.06317    0.02906    0.01025
  4 Na    0.05772   -0.06929   -0.01839
  5 Na   -0.01850    0.04027    0.01134

System changes: positions 

Initializing position-dependent things.

Density initialized from wave functions
           .--------------------------------------.  
          /|                                      |  
         / |                                      |  
        /  |                                      |  
       /   |                                      |  
      /    |                                      |  
     /     |                                      |  
    /      |                                      |  
   /       |                                      |  
  /        |                                      |  
 *         |                                      |  
 |         |                                      |  
 |         |              Na                      |  
 |         |                                      |  
 |         |                                      |  
 |         |        Na       Na                   |  
 |         |                                      |  
 |         |   Na       Na      Na                |  
 |         |                                      |  
 |         |                                      |  
 |         .--------------------------------------.  
 |        /                                      /   
 |       /                                      /    
 |      /                                      /     
 |     /                                      /      
 |    /                                      /       
 |   /                                      /        
 |  /                                      /         
 | /                                      /          
 |/                                      /           
 *--------------------------------------*            

Positions:
   0 Na     4.619456    4.905293    7.713553    ( 0.0000,  0.0000,  0.0000)
   1 Na     8.021777    5.338737    7.631021    ( 0.0000,  0.0000,  0.0000)
   2 Na     5.844195    8.088267    8.158060    ( 0.0000,  0.0000,  0.0000)
   3 Na    11.355685    5.793899    7.186307    ( 0.0000,  0.0000,  0.0000)
   4 Na     9.493185    8.426751    8.020642    ( 0.0000,  0.0000,  0.0000)
   5 Na     7.368385   11.097210    8.770471    ( 0.0000,  0.0000,  0.0000)

Unit cell:
           periodic     x           y           z      points  spacing
  1. axis:    no    16.000000    0.000000    0.000000    64     0.2500
  2. axis:    no     0.000000   16.000000    0.000000    64     0.2500
  3. axis:    no     0.000000    0.000000   16.000000    64     0.2500

  Lengths:  16.000000  16.000000  16.000000
  Angles:   90.000000  90.000000  90.000000

Effective grid spacing dv^(1/3) = 0.2500

     iter     time        total  log10-change:
                         energy  eigst   dens
iter:   1 11:59:34    -4.473353       c
iter:   2 11:59:35    -4.460821       c -1.35
iter:   3 11:59:37    -4.459446       c -1.81
iter:   4 11:59:38    -4.459129c      c -2.05
iter:   5 11:59:39    -4.459119c      c -2.61
iter:   6 11:59:40    -4.459115c      c -2.82
iter:   7 11:59:41    -4.459115c      c -3.45
iter:   8 11:59:42    -4.459115c      c -3.66
iter:   9 11:59:43    -4.459115c      c -3.92
iter:  10 11:59:44    -4.459115c      c -4.32c

Converged after 10 iterations.

Dipole moment: (0.035318, -0.044708, -0.010373) |e|*Ang

Energy contributions relative to reference atoms: (reference = -26511.662975)

Kinetic:        +16.434491
Potential:      -14.870135
External:        +0.000000
XC:              -6.040902
Entropy (-ST):   -0.000004
Local:           +0.017432
--------------------------
Free energy:     -4.459117
Extrapolated:    -4.459115

 Band  Eigenvalues  Occupancy
    0     -4.06161    2.00000
    1     -3.04495    2.00000
    2     -2.98292    2.00000
    3     -1.61151    0.00000
    4     -1.47362    0.00000
    5     -1.44855    0.00000
    6      2.30617    0.00000
    7      2.49008    0.00000
    8      2.71188    0.00000
    9      3.51883    0.00000

Fermi level: -2.29329

Gap: 1.371 eV
Transition (v -> c):
  (s=0, k=0, n=2, [0.00, 0.00, 0.00]) -> (s=0, k=0, n=3, [0.00, 0.00, 0.00])

Forces in eV/Ang:
  0 Na    0.03506    0.02773    0.00506
  1 Na   -0.03814   -0.09896   -0.02848
  2 Na   -0.00993    0.01991    0.01824
  3 Na    0.01341   -0.02520    0.00406
  4 Na   -0.02086    0.13034    0.02301
  5 Na    0.01815   -0.05607   -0.01903

System changes: positions 

Initializing position-dependent things.

Density initialized from wave functions
           .--------------------------------------.  
          /|                                      |  
         / |                                      |  
        /  |                                      |  
       /   |                                      |  
      /    |                                      |  
     /     |                                      |  
    /      |                                      |  
   /       |                                      |  
  /        |                                      |  
 *         |                                      |  
 |         |                                      |  
 |         |              Na                      |  
 |         |                                      |  
 |         |                                      |  
 |         |        Na        Na                  |  
 |         |                                      |  
 |         |   Na       Na                        |  
 |         |                    Na                |  
 |         |                                      |  
 |         .--------------------------------------.  
 |        /                                      /   
 |       /                                      /    
 |      /                                      /     
 |     /                                      /      
 |    /                                      /       
 |   /                                      /        
 |  /                                      /         
 | /                                      /          
 |/                                      /           
 *--------------------------------------*            

Positions:
   0 Na     4.663603    4.957242    7.731141    ( 0.0000,  0.0000,  0.0000)
   1 Na     8.040091    5.165391    7.749642    ( 0.0000,  0.0000,  0.0000)
   2 Na     5.732145    8.140418    8.105762    ( 0.0000,  0.0000,  0.0000)
   3 Na    11.272488    5.777485    7.068383    ( 0.0000,  0.0000,  0.0000)
   4 Na     9.541025    8.602787    8.093638    ( 0.0000,  0.0000,  0.0000)
   5 Na     7.397941   10.999077    8.823343    ( 0.0000,  0.0000,  0.0000)

Unit cell:
           periodic     x           y           z      points  spacing
  1. axis:    no    16.000000    0.000000    0.000000    64     0.2500
  2. axis:    no     0.000000   16.000000    0.000000    64     0.2500
  3. axis:    no     0.000000    0.000000   16.000000    64     0.2500

  Lengths:  16.000000  16.000000  16.000000
  Angles:   90.000000  90.000000  90.000000

Effective grid spacing dv^(1/3) = 0.2500

     iter     time        total  log10-change:
                         energy  eigst   dens
iter:   1 11:59:46    -4.460648       c
iter:   2 11:59:47    -4.454881       c -1.53
iter:   3 11:59:48    -4.454050       c -1.89
iter:   4 11:59:49    -4.453792c      c -2.13
iter:   5 11:59:50    -4.453778c      c -2.65
iter:   6 11:59:51    -4.453773c      c -2.88
iter:   7 11:59:52    -4.453773c      c -3.45
iter:   8 11:59:53    -4.453773c      c -3.68
iter:   9 11:59:55    -4.453773c      c -4.08c

Converged after 9 iterations.

Dipole moment: (-0.000271, -0.003780, 0.005391) |e|*Ang

Energy contributions relative to reference atoms: (reference = -26511.662975)

Kinetic:        +15.921536
Potential:      -14.491492
External:        +0.000000
XC:              -5.900274
Entropy (-ST):   -0.000002
Local:           +0.016459
--------------------------
Free energy:     -4.453774
Extrapolated:    -4.453773

 Band  Eigenvalues  Occupancy
    0     -4.00569    2.00000
    1     -3.03465    2.00000
    2     -3.02267    2.00000
    3     -1.56411    0.00000
    4     -1.50724    0.00000
    5     -1.47810    0.00000
    6      2.46645    0.00000
    7      2.49053    0.00000
    8      2.74748    0.00000
    9      3.51796    0.00000

Fermi level: -2.28901

Gap: 1.459 eV
Transition (v -> c):
  (s=0, k=0, n=2, [0.00, 0.00, 0.00]) -> (s=0, k=0, n=3, [0.00, 0.00, 0.00])

Forces in eV/Ang:
  0 Na   -0.01117   -0.00145    0.00389
  1 Na   -0.01513    0.05100   -0.02062
  2 Na    0.06414   -0.03080    0.01464
  3 Na   -0.00112    0.02867    0.02578
  4 Na   -0.00526   -0.09816   -0.03244
  5 Na   -0.03082    0.05123    0.00509

System changes: positions 

Initializing position-dependent things.

Density initialized from wave functions
           .--------------------------------------.  
          /|                                      |  
         / |                                      |  
        /  |                                      |  
       /   |                                      |  
      /    |                                      |  
     /     |                                      |  
    /      |                                      |  
   /       |                                      |  
  /        |                                      |  
 *         |                                      |  
 |         |                                      |  
 |         |              Na                      |  
 |         |                                      |  
 |         |                                      |  
 |         |        Na       Na                   |  
 |         |                                      |  
 |         |   Na       Na      Na                |  
 |         |                                      |  
 |         |                                      |  
 |         .--------------------------------------.  
 |        /                                      /   
 |       /                                      /    
 |      /                                      /     
 |     /                                      /      
 |    /                                      /       
 |   /                                      /        
 |  /                                      /         
 | /                                      /          
 |/                                      /           
 *--------------------------------------*            

Positions:
   0 Na     4.651772    4.969444    7.724862    ( 0.0000,  0.0000,  0.0000)
   1 Na     8.027659    5.210757    7.459098    ( 0.0000,  0.0000,  0.0000)
   2 Na     5.869270    8.066849    8.244726    ( 0.0000,  0.0000,  0.0000)
   3 Na    11.332616    5.795555    7.303639    ( 0.0000,  0.0000,  0.0000)
   4 Na     9.496079    8.522996    7.995069    ( 0.0000,  0.0000,  0.0000)
   5 Na     7.360198   11.080728    8.700077    ( 0.0000,  0.0000,  0.0000)

Unit cell:
           periodic     x           y           z      points  spacing
  1. axis:    no    16.000000    0.000000    0.000000    64     0.2500
  2. axis:    no     0.000000   16.000000    0.000000    64     0.2500
  3. axis:    no     0.000000    0.000000   16.000000    64     0.2500

  Lengths:  16.000000  16.000000  16.000000
  Angles:   90.000000  90.000000  90.000000

Effective grid spacing dv^(1/3) = 0.2500

     iter     time        total  log10-change:
                         energy  eigst   dens
iter:   1 11:59:56    -4.476593       c
iter:   2 11:59:57    -4.475475       c -1.87
iter:   3 11:59:58    -4.475109c      c -2.14
iter:   4 11:59:59    -4.474968c      c -2.40
iter:   5 12:00:01    -4.474963c      c -3.09
iter:   6 12:00:02    -4.474961c      c -3.34
iter:   7 12:00:03    -4.474961c      c -3.74
iter:   8 12:00:04    -4.474961c      c -4.05c

Converged after 8 iterations.

Dipole moment: (0.006610, -0.003375, -0.001707) |e|*Ang

Energy contributions relative to reference atoms: (reference = -26511.662975)

Kinetic:        +16.538401
Potential:      -14.978026
External:        +0.000000
XC:              -6.052582
Entropy (-ST):   -0.000002
Local:           +0.017248
--------------------------
Free energy:     -4.474962
Extrapolated:    -4.474961

 Band  Eigenvalues  Occupancy
    0     -4.03835    2.00000
    1     -3.03016    2.00000
    2     -3.02017    2.00000
    3     -1.53715    0.00000
    4     -1.49868    0.00000
    5     -1.48017    0.00000
    6      2.39612    0.00000
    7      2.42677    0.00000
    8      2.70851    0.00000
    9      3.58232    0.00000

Fermi level: -2.27816

Gap: 1.483 eV
Transition (v -> c):
  (s=0, k=0, n=2, [0.00, 0.00, 0.00]) -> (s=0, k=0, n=3, [0.00, 0.00, 0.00])

Forces in eV/Ang:
  0 Na   -0.00176   -0.01113   -0.00183
  1 Na   -0.02036    0.00625    0.00462
  2 Na    0.01096    0.00825   -0.00041
  3 Na    0.02665   -0.01218   -0.00652
  4 Na   -0.02154    0.01543    0.00594
  5 Na    0.00508   -0.00904   -0.00073

System changes: positions 

Initializing position-dependent things.

Density initialized from wave functions
           .--------------------------------------.  
          /|                                      |  
         / |                                      |  
        /  |                                      |  
       /   |                                      |  
      /    |                                      |  
     /     |                                      |  
    /      |                                      |  
   /       |                                      |  
  /        |                                      |  
 *         |                                      |  
 |         |                                      |  
 |         |              Na                      |  
 |         |                                      |  
 |         |                                      |  
 |         |        Na       Na                   |  
 |         |                                      |  
 |         |   Na               Na                |  
 |         |            Na                        |  
 |         |                                      |  
 |         .--------------------------------------.  
 |        /                                      /   
 |       /                                      /    
 |      /                                      /     
 |     /                                      /      
 |    /                                      /       
 |   /                                      /        
 |  /                                      /         
 | /                                      /          
 |/                                      /           
 *--------------------------------------*            

Positions:
   0 Na     4.637016    4.929446    7.682707    ( 0.0000,  0.0000,  0.0000)
   1 Na     8.077249    5.335884    7.185962    ( 0.0000,  0.0000,  0.0000)
   2 Na     5.884635    8.035861    8.346588    ( 0.0000,  0.0000,  0.0000)
   3 Na    11.437032    5.759189    7.539188    ( 0.0000,  0.0000,  0.0000)
   4 Na     9.440898    8.512485    7.931034    ( 0.0000,  0.0000,  0.0000)
   5 Na     7.396804   11.092123    8.528314    ( 0.0000,  0.0000,  0.0000)

Unit cell:
           periodic     x           y           z      points  spacing
  1. axis:    no    16.000000    0.000000    0.000000    64     0.2500
  2. axis:    no     0.000000   16.000000    0.000000    64     0.2500
  3. axis:    no     0.000000    0.000000   16.000000    64     0.2500

  Lengths:  16.000000  16.000000  16.000000
  Angles:   90.000000  90.000000  90.000000

Effective grid spacing dv^(1/3) = 0.2500

     iter     time        total  log10-change:
                         energy  eigst   dens
iter:   1 12:00:06    -4.461360       c
iter:   2 12:00:07    -4.459821       c -1.74
iter:   3 12:00:08    -4.459496c      c -2.12
iter:   4 12:00:09    -4.459352c      c -2.34
iter:   5 12:00:10    -4.459350c      c -3.09
iter:   6 12:00:11    -4.459349c      c -3.27
iter:   7 12:00:12    -4.459349c      c -3.81
iter:   8 12:00:13    -4.459349c      c -4.10c

Converged after 8 iterations.

Dipole moment: (0.032277, -0.007046, -0.010147) |e|*Ang

Energy contributions relative to reference atoms: (reference = -26511.662975)

Kinetic:        +16.132985
Potential:      -14.635135
External:        +0.000000
XC:              -5.974586
Entropy (-ST):   -0.000003
Local:           +0.017388
--------------------------
Free energy:     -4.459351
Extrapolated:    -4.459349

 Band  Eigenvalues  Occupancy
    0     -4.04743    2.00000
    1     -3.02665    2.00000
    2     -3.00079    2.00000
    3     -1.59151    0.00000
    4     -1.49550    0.00000
    5     -1.46225    0.00000
    6      2.37480    0.00000
    7      2.47361    0.00000
    8      2.71947    0.00000
    9      3.55593    0.00000

Fermi level: -2.28947

Gap: 1.409 eV
Transition (v -> c):
  (s=0, k=0, n=2, [0.00, 0.00, 0.00]) -> (s=0, k=0, n=3, [0.00, 0.00, 0.00])

Forces in eV/Ang:
  0 Na    0.05657    0.02258   -0.00693
  1 Na   -0.05288   -0.04539    0.03438
  2 Na   -0.00873   -0.00725   -0.02665
  3 Na   -0.02518    0.01349   -0.02064
  4 Na    0.04955    0.00797    0.00900
  5 Na   -0.01785    0.00719    0.01204

System changes: positions 

Initializing position-dependent things.

Density initialized from wave functions
           .--------------------------------------.  
          /|                                      |  
         / |                                      |  
        /  |                                      |  
       /   |                                      |  
      /    |                                      |  
     /     |                                      |  
    /      |                                      |  
   /       |                                      |  
  /        |                                      |  
 *         |                                      |  
 |         |                                      |  
 |         |              Na                      |  
 |         |                                      |  
 |         |                                      |  
 |         |         Na      Na                   |  
 |         |                                      |  
 |         |   Na       Na      Na                |  
 |         |                                      |  
 |         |                                      |  
 |         .--------------------------------------.  
 |        /                                      /   
 |       /                                      /    
 |      /                                      /     
 |     /                                      /      
 |    /                                      /       
 |   /                                      /        
 |  /                                      /         
 | /                                      /          
 |/                                      /           
 *--------------------------------------*            

Positions:
   0 Na     4.586451    4.973864    7.773041    ( 0.0000,  0.0000,  0.0000)
   1 Na     8.022519    5.148710    7.583443    ( 0.0000,  0.0000,  0.0000)
   2 Na     5.931603    8.093918    8.229829    ( 0.0000,  0.0000,  0.0000)
   3 Na    11.307467    5.803834    7.171754    ( 0.0000,  0.0000,  0.0000)
   4 Na     9.450889    8.521880    8.021375    ( 0.0000,  0.0000,  0.0000)
   5 Na     7.333500   11.075366    8.812182    ( 0.0000,  0.0000,  0.0000)

Unit cell:
           periodic     x           y           z      points  spacing
  1. axis:    no    16.000000    0.000000    0.000000    64     0.2500
  2. axis:    no     0.000000   16.000000    0.000000    64     0.2500
  3. axis:    no     0.000000    0.000000   16.000000    64     0.2500

  Lengths:  16.000000  16.000000  16.000000
  Angles:   90.000000  90.000000  90.000000

Effective grid spacing dv^(1/3) = 0.2500

     iter     time        total  log10-change:
                         energy  eigst   dens
iter:   1 12:00:15    -4.471939       c
iter:   2 12:00:16    -4.470855       c -1.84
iter:   3 12:00:17    -4.470389c      c -2.10
iter:   4 12:00:18    -4.470231c      c -2.41
iter:   5 12:00:19    -4.470227c      c -3.14
iter:   6 12:00:20    -4.470225c      c -3.34
iter:   7 12:00:21    -4.470225c      c -3.84
iter:   8 12:00:22    -4.470225c      c -4.08c

Converged after 8 iterations.

Dipole moment: (0.009699, 0.032189, 0.008807) |e|*Ang

Energy contributions relative to reference atoms: (reference = -26511.662975)

Kinetic:        +16.264829
Potential:      -14.752080
External:        +0.000000
XC:              -5.999863
Entropy (-ST):   -0.000003
Local:           +0.016890
--------------------------
Free energy:     -4.470226
Extrapolated:    -4.470225

 Band  Eigenvalues  Occupancy
    0     -4.04212    2.00000
    1     -3.04102    2.00000
    2     -3.00195    2.00000
    3     -1.56685    0.00000
    4     -1.50619    0.00000
    5     -1.46158    0.00000
    6      2.36832    0.00000
    7      2.47138    0.00000
    8      2.71840    0.00000
    9      3.55918    0.00000

Fermi level: -2.28373

Gap: 1.435 eV
Transition (v -> c):
  (s=0, k=0, n=2, [0.00, 0.00, 0.00]) -> (s=0, k=0, n=3, [0.00, 0.00, 0.00])

Forces in eV/Ang:
  0 Na    0.03750    0.01794    0.00274
  1 Na   -0.04030    0.01891   -0.00779
  2 Na   -0.04799   -0.05012    0.00274
  3 Na    0.00755    0.00410    0.00827
  4 Na    0.02253   -0.00250   -0.00301
  5 Na    0.01875    0.01033   -0.00459

System changes: positions 

Initializing position-dependent things.

Density initialized from wave functions
           .--------------------------------------.  
          /|                                      |  
         / |                                      |  
        /  |                                      |  
       /   |                                      |  
      /    |                                      |  
     /     |                                      |  
    /      |                                      |  
   /       |                                      |  
  /        |                                      |  
 *         |                                      |  
 |         |                                      |  
 |         |              Na                      |  
 |         |                                      |  
 |         |                                      |  
 |         |        Na        Na                  |  
 |         |                                      |  
 |         |   Na       Na      Na                |  
 |         |                                      |  
 |         |                                      |  
 |         .--------------------------------------.  
 |        /                                      /   
 |       /                                      /    
 |      /                                      /     
 |     /                                      /      
 |    /                                      /       
 |   /                                      /        
 |  /                                      /         
 | /                                      /          
 |/                                      /           
 *--------------------------------------*            

Positions:
   0 Na     4.683050    4.876740    7.620527    ( 0.0000,  0.0000,  0.0000)
   1 Na     8.093086    5.280530    7.462791    ( 0.0000,  0.0000,  0.0000)
   2 Na     5.865715    8.208313    8.159587    ( 0.0000,  0.0000,  0.0000)
   3 Na    11.358858    5.758154    7.361872    ( 0.0000,  0.0000,  0.0000)
   4 Na     9.531681    8.532753    8.013120    ( 0.0000,  0.0000,  0.0000)
   5 Na     7.354052   11.037370    8.595584    ( 0.0000,  0.0000,  0.0000)

Unit cell:
           periodic     x           y           z      points  spacing
  1. axis:    no    16.000000    0.000000    0.000000    64     0.2500
  2. axis:    no     0.000000   16.000000    0.000000    64     0.2500
  3. axis:    no     0.000000    0.000000   16.000000    64     0.2500

  Lengths:  16.000000  16.000000  16.000000
  Angles:   90.000000  90.000000  90.000000

Effective grid spacing dv^(1/3) = 0.2500

     iter     time        total  log10-change:
                         energy  eigst   dens
iter:   1 12:00:24    -4.457883       c
iter:   2 12:00:25    -4.454481       c -1.61
iter:   3 12:00:26    -4.454025       c -2.06
iter:   4 12:00:27    -4.453883c      c -2.30
iter:   5 12:00:28    -4.453877c      c -2.82
iter:   6 12:00:30    -4.453874c      c -3.06
iter:   7 12:00:31    -4.453874c      c -3.60
iter:   8 12:00:32    -4.453874c      c -3.80
iter:   9 12:00:33    -4.453874c      c -4.35c

Converged after 9 iterations.

Dipole moment: (0.053348, 0.042464, 0.004610) |e|*Ang

Energy contributions relative to reference atoms: (reference = -26511.662975)

Kinetic:        +16.574970
Potential:      -15.000410
External:        +0.000000
XC:              -6.045625
Entropy (-ST):   -0.000003
Local:           +0.017193
--------------------------
Free energy:     -4.453875
Extrapolated:    -4.453874

 Band  Eigenvalues  Occupancy
    0     -4.04011    2.00000
    1     -3.06828    2.00000
    2     -2.98491    2.00000
    3     -1.54913    0.00000
    4     -1.52957    0.00000
    5     -1.44777    0.00000
    6      2.31470    0.00000
    7      2.46268    0.00000
    8      2.78701    0.00000
    9      3.53024    0.00000

Fermi level: -2.27750

Gap: 1.436 eV
Transition (v -> c):
  (s=0, k=0, n=2, [0.00, 0.00, 0.00]) -> (s=0, k=0, n=3, [0.00, 0.00, 0.00])

Forces in eV/Ang:
  0 Na    0.05479    0.08005    0.00991
  1 Na   -0.10690   -0.01222    0.00618
  2 Na   -0.04768   -0.18453   -0.02979
  3 Na    0.05641    0.01451   -0.00033
  4 Na    0.00585   -0.00342   -0.00264
  5 Na    0.03716    0.10480    0.01682

System changes: positions 

Initializing position-dependent things.

Density initialized from wave functions
           .--------------------------------------.  
          /|                                      |  
         / |                                      |  
        /  |                                      |  
       /   |                                      |  
      /    |                                      |  
     /     |                                      |  
    /      |                                      |  
   /       |                                      |  
  /        |                                      |  
 *         |                                      |  
 |         |                                      |  
 |         |              Na                      |  
 |         |                                      |  
 |         |        Na                            |  
 |         |                 Na                   |  
 |         |                                      |  
 |         |   Na       Na      Na                |  
 |         |                                      |  
 |         |                                      |  
 |         .--------------------------------------.  
 |        /                                      /   
 |       /                                      /    
 |      /                                      /     
 |     /                                      /      
 |    /                                      /       
 |   /                                      /        
 |  /                                      /         
 | /                                      /          
 |/                                      /           
 *--------------------------------------*            

Positions:
   0 Na     4.554590    4.944919    7.881683    ( 0.0000,  0.0000,  0.0000)
   1 Na     7.968199    5.246886    7.377761    ( 0.0000,  0.0000,  0.0000)
   2 Na     5.823854    8.061901    8.488766    ( 0.0000,  0.0000,  0.0000)
   3 Na    11.324022    5.793166    7.248439    ( 0.0000,  0.0000,  0.0000)
   4 Na     9.445107    8.516853    7.956116    ( 0.0000,  0.0000,  0.0000)
   5 Na     7.373590   10.994845    8.811137    ( 0.0000,  0.0000,  0.0000)

Unit cell:
           periodic     x           y           z      points  spacing
  1. axis:    no    16.000000    0.000000    0.000000    64     0.2500
  2. axis:    no     0.000000   16.000000    0.000000    64     0.2500
  3. axis:    no     0.000000    0.000000   16.000000    64     0.2500

  Lengths:  16.000000  16.000000  16.000000
  Angles:   90.000000  90.000000  90.000000

Effective grid spacing dv^(1/3) = 0.2500

     iter     time        total  log10-change:
                         energy  eigst   dens
iter:   1 12:00:34    -4.472771       c
iter:   2 12:00:36    -4.470254       c -1.67
iter:   3 12:00:37    -4.469847c      c -2.05
iter:   4 12:00:38    -4.469720c      c -2.33
iter:   5 12:00:39    -4.469713c      c -2.84
iter:   6 12:00:40    -4.469710c      c -3.05
iter:   7 12:00:41    -4.469710c      c -3.63
iter:   8 12:00:42    -4.469710c      c -3.86
iter:   9 12:00:43    -4.469710c      c -4.23c

Converged after 9 iterations.

Dipole moment: (0.022599, -0.006212, -0.007759) |e|*Ang

Energy contributions relative to reference atoms: (reference = -26511.662975)

Kinetic:        +16.252864
Potential:      -14.748881
External:        +0.000000
XC:              -5.990845
Entropy (-ST):   -0.000002
Local:           +0.017154
--------------------------
Free energy:     -4.469711
Extrapolated:    -4.469710

 Band  Eigenvalues  Occupancy
    0     -4.03322    2.00000
    1     -3.03638    2.00000
    2     -3.01238    2.00000
    3     -1.55149    0.00000
    4     -1.50468    0.00000
    5     -1.47624    0.00000
    6      2.38534    0.00000
    7      2.46983    0.00000
    8      2.72868    0.00000
    9      3.57071    0.00000

Fermi level: -2.28186

Gap: 1.461 eV
Transition (v -> c):
  (s=0, k=0, n=2, [0.00, 0.00, 0.00]) -> (s=0, k=0, n=3, [0.00, 0.00, 0.00])

Forces in eV/Ang:
  0 Na    0.04443    0.01805   -0.00349
  1 Na   -0.03836    0.00147    0.01964
  2 Na   -0.00033   -0.05402   -0.02246
  3 Na   -0.01067   -0.00455   -0.00923
  4 Na    0.00566   -0.01578    0.00289
  5 Na   -0.00201    0.05498    0.01304

System changes: positions 

Initializing position-dependent things.

Density initialized from wave functions
           .--------------------------------------.  
          /|                                      |  
         / |                                      |  
        /  |                                      |  
       /   |                                      |  
      /    |                                      |  
     /     |                                      |  
    /      |                                      |  
   /       |                                      |  
  /        |                                      |  
 *         |                                      |  
 |         |                                      |  
 |         |              Na                      |  
 |         |                                      |  
 |         |        Na                            |  
 |         |                 Na                   |  
 |         |                                      |  
 |         |   Na      Na                         |  
 |         |                    Na                |  
 |         |                                      |  
 |         .--------------------------------------.  
 |        /                                      /   
 |       /                                      /    
 |      /                                      /     
 |     /                                      /      
 |    /                                      /       
 |   /                                      /        
 |  /                                      /         
 | /                                      /          
 |/                                      /           
 *--------------------------------------*            

Positions:
   0 Na     4.625202    4.957864    7.992439    ( 0.0000,  0.0000,  0.0000)
   1 Na     7.809236    5.224113    7.461107    ( 0.0000,  0.0000,  0.0000)
   2 Na     5.795766    7.955755    8.575077    ( 0.0000,  0.0000,  0.0000)
   3 Na    11.236128    5.757472    7.099757    ( 0.0000,  0.0000,  0.0000)
   4 Na     9.443989    8.488563    7.965178    ( 0.0000,  0.0000,  0.0000)
   5 Na     7.348997   11.098118    8.987318    ( 0.0000,  0.0000,  0.0000)

Unit cell:
           periodic     x           y           z      points  spacing
  1. axis:    no    16.000000    0.000000    0.000000    64     0.2500
  2. axis:    no     0.000000   16.000000    0.000000    64     0.2500
  3. axis:    no     0.000000    0.000000   16.000000    64     0.2500

  Lengths:  16.000000  16.000000  16.000000
  Angles:   90.000000  90.000000  90.000000

Effective grid spacing dv^(1/3) = 0.2500

     iter     time        total  log10-change:
                         energy  eigst   dens
iter:   1 12:00:45    -4.473981       c
iter:   2 12:00:46    -4.454379       c -1.24
iter:   3 12:00:47    -4.452126       c -1.73
iter:   4 12:00:48    -4.451601c      c -1.99
iter:   5 12:00:49    -4.451573c      c -2.50
iter:   6 12:00:50    -4.451565c      c -2.73
iter:   7 12:00:51    -4.451565c      c -3.33
iter:   8 12:00:53    -4.451565c      c -3.59
iter:   9 12:00:54    -4.451565c      c -3.82
iter:  10 12:00:55    -4.451565c      c -4.18c

Converged after 10 iterations.

Dipole moment: (-0.041071, -0.048627, -0.006395) |e|*Ang

Energy contributions relative to reference atoms: (reference = -26511.662975)

Kinetic:        +16.235094
Potential:      -14.726056
External:        +0.000000
XC:              -5.977868
Entropy (-ST):   -0.000003
Local:           +0.017267
--------------------------
Free energy:     -4.451566
Extrapolated:    -4.451565

 Band  Eigenvalues  Occupancy
    0     -4.03835    2.00000
    1     -3.06064    2.00000
    2     -2.98419    2.00000
    3     -1.55534    0.00000
    4     -1.52111    0.00000
    5     -1.46490    0.00000
    6      2.26834    0.00000
    7      2.56046    0.00000
    8      2.79090    0.00000
    9      3.54974    0.00000

Fermi level: -2.27766

Gap: 1.429 eV
Transition (v -> c):
  (s=0, k=0, n=2, [0.00, 0.00, 0.00]) -> (s=0, k=0, n=3, [0.00, 0.00, 0.00])

Forces in eV/Ang:
  0 Na   -0.12338   -0.07807    0.00308
  1 Na    0.15667    0.00661   -0.02002
  2 Na    0.06548    0.15418    0.01793
  3 Na   -0.04419   -0.00757   -0.00119
  4 Na   -0.05545    0.02890    0.02300
  5 Na   -0.00033   -0.10299   -0.02247

System changes: positions 

Initializing position-dependent things.

Density initialized from wave functions
           .--------------------------------------.  
          /|                                      |  
         / |                                      |  
        /  |                                      |  
       /   |                                      |  
      /    |                                      |  
     /     |                                      |  
    /      |                                      |  
   /       |                                      |  
  /        |                                      |  
 *         |                                      |  
 |         |                                      |  
 |         |              Na                      |  
 |         |                                      |  
 |         |        Na                            |  
 |         |                 Na                   |  
 |         |                                      |  
 |         |   Na       Na                        |  
 |         |                    Na                |  
 |         |                                      |  
 |         .--------------------------------------.  
 |        /                                      /   
 |       /                                      /    
 |      /                                      /     
 |     /                                      /      
 |    /                                      /       
 |   /                                      /        
 |  /                                      /         
 | /                                      /          
 |/                                      /           
 *--------------------------------------*            

Positions:
   0 Na     4.506616    4.834563    8.110565    ( 0.0000,  0.0000,  0.0000)
   1 Na     7.911355    5.249232    7.481487    ( 0.0000,  0.0000,  0.0000)
   2 Na     5.850925    8.091349    8.705888    ( 0.0000,  0.0000,  0.0000)
   3 Na    11.061944    5.708223    6.971471    ( 0.0000,  0.0000,  0.0000)
   4 Na     9.354098    8.505855    8.012419    ( 0.0000,  0.0000,  0.0000)
   5 Na     7.343652   11.017256    9.106028    ( 0.0000,  0.0000,  0.0000)

Unit cell:
           periodic     x           y           z      points  spacing
  1. axis:    no    16.000000    0.000000    0.000000    64     0.2500
  2. axis:    no     0.000000   16.000000    0.000000    64     0.2500
  3. axis:    no     0.000000    0.000000   16.000000    64     0.2500

  Lengths:  16.000000  16.000000  16.000000
  Angles:   90.000000  90.000000  90.000000

Effective grid spacing dv^(1/3) = 0.2500

     iter     time        total  log10-change:
                         energy  eigst   dens
iter:   1 12:00:57    -4.488904       c
iter:   2 12:00:58    -4.456210       c -1.12
iter:   3 12:00:59    -4.452579       c -1.61
iter:   4 12:01:00    -4.451621       c -1.84
iter:   5 12:01:01    -4.451561c      c -2.27
iter:   6 12:01:02    -4.451541c      c -2.54
iter:   7 12:01:04    -4.451540c      c -3.04
iter:   8 12:01:05    -4.451540c      c -3.29
iter:   9 12:01:06    -4.451540c      c -3.88
iter:  10 12:01:07    -4.451540c      c -4.29c

Converged after 10 iterations.

Dipole moment: (0.050044, 0.070378, 0.006952) |e|*Ang

Energy contributions relative to reference atoms: (reference = -26511.662975)

Kinetic:        +16.291410
Potential:      -14.766413
External:        +0.000000
XC:              -5.993867
Entropy (-ST):   -0.000004
Local:           +0.017332
--------------------------
Free energy:     -4.451542
Extrapolated:    -4.451540

 Band  Eigenvalues  Occupancy
    0     -4.04634    2.00000
    1     -3.07564    2.00000
    2     -2.97185    2.00000
    3     -1.58345    0.00000
    4     -1.52609    0.00000
    5     -1.43765    0.00000
    6      2.31750    0.00000
    7      2.46698    0.00000
    8      2.79755    0.00000
    9      3.53446    0.00000

Fermi level: -2.28260

Gap: 1.388 eV
Transition (v -> c):
  (s=0, k=0, n=2, [0.00, 0.00, 0.00]) -> (s=0, k=0, n=3, [0.00, 0.00, 0.00])

Forces in eV/Ang:
  0 Na    0.07497    0.08545    0.00757
  1 Na   -0.16727   -0.02211    0.03138
  2 Na   -0.06369   -0.13871   -0.02518
  3 Na    0.09630    0.04426   -0.01037
  4 Na    0.03081   -0.00622   -0.00606
  5 Na    0.02707    0.03493    0.00262

System changes: positions 

Initializing position-dependent things.

Density initialized from wave functions
           .--------------------------------------.  
          /|                                      |  
         / |                                      |  
        /  |                                      |  
       /   |                                      |  
      /    |                                      |  
     /     |                                      |  
    /      |                                      |  
   /       |                                      |  
  /        |                                      |  
 *         |                                      |  
 |         |                                      |  
 |         |              Na                      |  
 |         |                                      |  
 |         |        Na                            |  
 |         |                 Na                   |  
 |         |                                      |  
 |         |   Na      Na                         |  
 |         |                    Na                |  
 |         |                                      |  
 |         .--------------------------------------.  
 |        /                                      /   
 |       /                                      /    
 |      /                                      /     
 |     /                                      /      
 |    /                                      /       
 |   /                                      /        
 |  /                                      /         
 | /                                      /          
 |/                                      /           
 *--------------------------------------*            

Positions:
   0 Na     4.464363    4.898066    8.215915    ( 0.0000,  0.0000,  0.0000)
   1 Na     7.724837    5.210193    7.557035    ( 0.0000,  0.0000,  0.0000)
   2 Na     5.793955    7.991001    8.745515    ( 0.0000,  0.0000,  0.0000)
   3 Na    11.157984    5.805357    6.858747    ( 0.0000,  0.0000,  0.0000)
   4 Na     9.320220    8.519480    8.049603    ( 0.0000,  0.0000,  0.0000)
   5 Na     7.410022   10.927253    9.163956    ( 0.0000,  0.0000,  0.0000)

Unit cell:
           periodic     x           y           z      points  spacing
  1. axis:    no    16.000000    0.000000    0.000000    64     0.2500
  2. axis:    no     0.000000   16.000000    0.000000    64     0.2500
  3. axis:    no     0.000000    0.000000   16.000000    64     0.2500

  Lengths:  16.000000  16.000000  16.000000
  Angles:   90.000000  90.000000  90.000000

Effective grid spacing dv^(1/3) = 0.2500

     iter     time        total  log10-change:
                         energy  eigst   dens
iter:   1 12:01:09    -4.481816       c
iter:   2 12:01:10    -4.462737       c -1.26
iter:   3 12:01:11    -4.460531       c -1.71
iter:   4 12:01:12    -4.459956c      c -1.95
iter:   5 12:01:13    -4.459924c      c -2.43
iter:   6 12:01:15    -4.459911c      c -2.66
iter:   7 12:01:16    -4.459911c      c -3.26
iter:   8 12:01:17    -4.459911c      c -3.46
iter:   9 12:01:18    -4.459911c      c -4.06c

Converged after 9 iterations.

Dipole moment: (-0.064748, -0.001017, 0.015955) |e|*Ang

Energy contributions relative to reference atoms: (reference = -26511.662975)

Kinetic:        +16.182454
Potential:      -14.683542
External:        +0.000000
XC:              -5.975941
Entropy (-ST):   -0.000003
Local:           +0.017119
--------------------------
Free energy:     -4.459913
Extrapolated:    -4.459911

 Band  Eigenvalues  Occupancy
    0     -4.04145    2.00000
    1     -3.05872    2.00000
    2     -2.98504    2.00000
    3     -1.57355    0.00000
    4     -1.51740    0.00000
    5     -1.45121    0.00000
    6      2.33490    0.00000
    7      2.47762    0.00000
    8      2.78163    0.00000
    9      3.55137    0.00000

Fermi level: -2.28276

Gap: 1.411 eV
Transition (v -> c):
  (s=0, k=0, n=2, [0.00, 0.00, 0.00]) -> (s=0, k=0, n=3, [0.00, 0.00, 0.00])

Forces in eV/Ang:
  0 Na   -0.01853    0.00903    0.00824
  1 Na    0.11724    0.01296   -0.02867
  2 Na   -0.01736    0.00025    0.00453
  3 Na   -0.10086    0.02146    0.03225
  4 Na    0.06571   -0.10808   -0.04637
  5 Na   -0.04409    0.06539    0.02928

System changes: positions 

Initializing position-dependent things.

Density initialized from wave functions
           .--------------------------------------.  
          /|                                      |  
         / |                                      |  
        /  |                                      |  
       /   |                                      |  
      /    |                                      |  
     /     |                                      |  
    /      |                                      |  
   /       |                                      |  
  /        |                                      |  
 *         |                                      |  
 |         |                                      |  
 |         |              Na                      |  
 |         |                                      |  
 |         |        Na                            |  
 |         |                 Na                   |  
 |         |                                      |  
 |         |   Na       Na                        |  
 |         |                    Na                |  
 |         |                                      |  
 |         .--------------------------------------.  
 |        /                                      /   
 |       /                                      /    
 |      /                                      /     
 |     /                                      /      
 |    /                                      /       
 |   /                                      /        
 |  /                                      /         
 | /                                      /          
 |/                                      /           
 *--------------------------------------*            

Positions:
   0 Na     4.580947    4.896360    7.941907    ( 0.0000,  0.0000,  0.0000)
   1 Na     7.913538    5.251906    7.483549    ( 0.0000,  0.0000,  0.0000)
   2 Na     5.830379    8.027276    8.493521    ( 0.0000,  0.0000,  0.0000)
   3 Na    11.216647    5.749222    7.106322    ( 0.0000,  0.0000,  0.0000)
   4 Na     9.408542    8.529487    8.024480    ( 0.0000,  0.0000,  0.0000)
   5 Na     7.385437   11.059013    8.915398    ( 0.0000,  0.0000,  0.0000)

Unit cell:
           periodic     x           y           z      points  spacing
  1. axis:    no    16.000000    0.000000    0.000000    64     0.2500
  2. axis:    no     0.000000   16.000000    0.000000    64     0.2500
  3. axis:    no     0.000000    0.000000   16.000000    64     0.2500

  Lengths:  16.000000  16.000000  16.000000
  Angles:   90.000000  90.000000  90.000000

Effective grid spacing dv^(1/3) = 0.2500

     iter     time        total  log10-change:
                         energy  eigst   dens
iter:   1 12:01:20    -4.480064       c
iter:   2 12:01:21    -4.474443       c -1.50
iter:   3 12:01:22    -4.473753       c -1.98
iter:   4 12:01:23    -4.473566c      c -2.24
iter:   5 12:01:24    -4.473559c      c -2.78
iter:   6 12:01:26    -4.473556c      c -2.98
iter:   7 12:01:27    -4.473556c      c -3.57
iter:   8 12:01:28    -4.473556c      c -3.81
iter:   9 12:01:29    -4.473556c      c -4.13c

Converged after 9 iterations.

Dipole moment: (-0.016872, 0.011338, 0.005413) |e|*Ang

Energy contributions relative to reference atoms: (reference = -26511.662975)

Kinetic:        +16.307454
Potential:      -14.788075
External:        +0.000000
XC:              -6.010061
Entropy (-ST):   -0.000003
Local:           +0.017127
--------------------------
Free energy:     -4.473557
Extrapolated:    -4.473556

 Band  Eigenvalues  Occupancy
    0     -4.04244    2.00000
    1     -3.03313    2.00000
    2     -3.01144    2.00000
    3     -1.56752    0.00000
    4     -1.49549    0.00000
    5     -1.46744    0.00000
    6      2.41255    0.00000
    7      2.42814    0.00000
    8      2.70635    0.00000
    9      3.57582    0.00000

Fermi level: -2.28489

Gap: 1.444 eV
Transition (v -> c):
  (s=0, k=0, n=2, [0.00, 0.00, 0.00]) -> (s=0, k=0, n=3, [0.00, 0.00, 0.00])

Forces in eV/Ang:
  0 Na   -0.00206    0.01965    0.00630
  1 Na    0.00058   -0.01160   -0.00073
  2 Na   -0.00550    0.00942    0.00037
  3 Na    0.00238    0.02368    0.00356
  4 Na    0.02445   -0.03171   -0.01130
  5 Na   -0.01912   -0.01015    0.00360

System changes: positions 

Initializing position-dependent things.

Density initialized from wave functions
           .--------------------------------------.  
          /|                                      |  
         / |                                      |  
        /  |                                      |  
       /   |                                      |  
      /    |                                      |  
     /     |                                      |  
    /      |                                      |  
   /       |                                      |  
  /        |                                      |  
 *         |                                      |  
 |         |                                      |  
 |         |              Na                      |  
 |         |                                      |  
 |         |        Na                            |  
 |         |                 Na                   |  
 |         |   Na                                 |  
 |         |           Na                         |  
 |         |                    Na                |  
 |         |                                      |  
 |         .--------------------------------------.  
 |        /                                      /   
 |       /                                      /    
 |      /                                      /     
 |     /                                      /      
 |    /                                      /       
 |   /                                      /        
 |  /                                      /         
 | /                                      /          
 |/                                      /           
 *--------------------------------------*            

Positions:
   0 Na     4.360271    4.955598    8.331848    ( 0.0000,  0.0000,  0.0000)
   1 Na     7.823467    5.210841    7.580380    ( 0.0000,  0.0000,  0.0000)
   2 Na     5.705217    7.905009    8.772460    ( 0.0000,  0.0000,  0.0000)
   3 Na    11.025772    5.945119    6.808608    ( 0.0000,  0.0000,  0.0000)
   4 Na     9.404757    8.323626    8.013298    ( 0.0000,  0.0000,  0.0000)
   5 Na     7.407482   10.963435    9.266467    ( 0.0000,  0.0000,  0.0000)

Unit cell:
           periodic     x           y           z      points  spacing
  1. axis:    no    16.000000    0.000000    0.000000    64     0.2500
  2. axis:    no     0.000000   16.000000    0.000000    64     0.2500
  3. axis:    no     0.000000    0.000000   16.000000    64     0.2500

  Lengths:  16.000000  16.000000  16.000000
  Angles:   90.000000  90.000000  90.000000

Effective grid spacing dv^(1/3) = 0.2500

     iter     time        total  log10-change:
                         energy  eigst   dens
iter:   1 12:01:31    -4.442108       c
iter:   2 12:01:32    -4.424322       c -1.31
iter:   3 12:01:33    -4.421848       c -1.68
iter:   4 12:01:34    -4.421258       c -1.94
iter:   5 12:01:35    -4.421221c      c -2.42
iter:   6 12:01:37    -4.421206c      c -2.64
iter:   7 12:01:38    -4.421206c      c -3.25
iter:   8 12:01:39    -4.421206c      c -3.49
iter:   9 12:01:40    -4.421206c      c -3.78
iter:  10 12:01:41    -4.421206c      c -4.27c

Converged after 10 iterations.

Dipole moment: (0.032808, -0.129455, -0.043172) |e|*Ang

Energy contributions relative to reference atoms: (reference = -26511.662975)

Kinetic:        +16.575988
Potential:      -14.981972
External:        +0.000000
XC:              -6.032879
Entropy (-ST):   -0.000006
Local:           +0.017659
--------------------------
Free energy:     -4.421209
Extrapolated:    -4.421206

 Band  Eigenvalues  Occupancy
    0     -4.04807    2.00000
    1     -3.10470    2.00000
    2     -2.93769    2.00000
    3     -1.61708    0.00000
    4     -1.48599    0.00000
    5     -1.43472    0.00000
    6      2.22895    0.00000
    7      2.52312    0.00000
    8      2.84627    0.00000
    9      3.50841    0.00000

Fermi level: -2.27887

Gap: 1.321 eV
Transition (v -> c):
  (s=0, k=0, n=2, [0.00, 0.00, 0.00]) -> (s=0, k=0, n=3, [0.00, 0.00, 0.00])

Forces in eV/Ang:
  0 Na    0.05305   -0.06395   -0.03011
  1 Na   -0.09780   -0.04838    0.00110
  2 Na    0.09740    0.13845    0.02062
  3 Na    0.10426   -0.16090   -0.07404
  4 Na   -0.16177    0.24249    0.11202
  5 Na    0.00553   -0.10550   -0.03374

System changes: positions 

Initializing position-dependent things.

Density initialized from wave functions
           .--------------------------------------.  
          /|                                      |  
         / |                                      |  
        /  |                                      |  
       /   |                                      |  
      /    |                                      |  
     /     |                                      |  
    /      |                                      |  
   /       |                                      |  
  /        |                                      |  
 *         |                                      |  
 |         |                                      |  
 |         |              Na                      |  
 |         |                                      |  
 |         |                                      |  
 |         |        Na       Na                   |  
 |         |                                      |  
 |         |   Na       Na      Na                |  
 |         |                                      |  
 |         |                                      |  
 |         .--------------------------------------.  
 |        /                                      /   
 |       /                                      /    
 |      /                                      /     
 |     /                                      /      
 |    /                                      /       
 |   /                                      /        
 |  /                                      /         
 | /                                      /          
 |/                                      /           
 *--------------------------------------*            

Positions:
   0 Na     4.607883    4.946431    7.837114    ( 0.0000,  0.0000,  0.0000)
   1 Na     7.965715    5.220497    7.495628    ( 0.0000,  0.0000,  0.0000)
   2 Na     5.846834    8.060984    8.348026    ( 0.0000,  0.0000,  0.0000)
   3 Na    11.293387    5.788499    7.186208    ( 0.0000,  0.0000,  0.0000)
   4 Na     9.459493    8.508908    8.016917    ( 0.0000,  0.0000,  0.0000)
   5 Na     7.362825   11.056172    8.815292    ( 0.0000,  0.0000,  0.0000)

Unit cell:
           periodic     x           y           z      points  spacing
  1. axis:    no    16.000000    0.000000    0.000000    64     0.2500
  2. axis:    no     0.000000   16.000000    0.000000    64     0.2500
  3. axis:    no     0.000000    0.000000   16.000000    64     0.2500

  Lengths:  16.000000  16.000000  16.000000
  Angles:   90.000000  90.000000  90.000000

Effective grid spacing dv^(1/3) = 0.2500

     iter     time        total  log10-change:
                         energy  eigst   dens
iter:   1 12:01:43    -4.494732       c
iter:   2 12:01:44    -4.478403       c -1.31
iter:   3 12:01:45    -4.476306       c -1.73
iter:   4 12:01:46    -4.475727c      c -1.95
iter:   5 12:01:47    -4.475696c      c -2.45
iter:   6 12:01:48    -4.475683c      c -2.68
iter:   7 12:01:50    -4.475683c      c -3.25
iter:   8 12:01:51    -4.475683c      c -3.44
iter:   9 12:01:52    -4.475683c      c -4.14c

Converged after 9 iterations.

Dipole moment: (-0.000859, -0.002046, 0.000107) |e|*Ang

Energy contributions relative to reference atoms: (reference = -26511.662975)

Kinetic:        +16.418709
Potential:      -14.880441
External:        +0.000000
XC:              -6.030998
Entropy (-ST):   -0.000002
Local:           +0.017048
--------------------------
Free energy:     -4.475684
Extrapolated:    -4.475683

 Band  Eigenvalues  Occupancy
    0     -4.03998    2.00000
    1     -3.02489    2.00000
    2     -3.02264    2.00000
    3     -1.54968    0.00000
    4     -1.48724    0.00000
    5     -1.48575    0.00000
    6      2.41223    0.00000
    7      2.41956    0.00000
    8      2.70686    0.00000
    9      3.59254    0.00000

Fermi level: -2.28059

Gap: 1.473 eV
Transition (v -> c):
  (s=0, k=0, n=2, [0.00, 0.00, 0.00]) -> (s=0, k=0, n=3, [0.00, 0.00, 0.00])

Forces in eV/Ang:
  0 Na   -0.00226    0.00116   -0.00082
  1 Na    0.00165    0.00034   -0.00137
  2 Na    0.00114   -0.00069   -0.00018
  3 Na    0.00151   -0.00292    0.00129
  4 Na   -0.00591    0.00337    0.00052
  5 Na    0.00082   -0.00284   -0.00186

Writing to Na6/Na6.gpw (mode='all')

Timing:                                       incl.     excl.
--------------------------------------------------------------------
Basic WFS set positions:                      0.010     0.005   0.0% |
 Redistribute:                                0.004     0.004   0.0% |
Basis functions set positions:                0.586     0.586   0.3% |
Forces:                                       6.936     1.530   0.9% |
 LCAO forces:                                 5.406     0.006   0.0% |
  Atomic Hamiltonian force:                   0.019     0.019   0.0% |
  Initial:                                    0.002     0.000   0.0% |
   Get density matrix:                        0.002     0.002   0.0% |
  Paw correction:                             0.014     0.014   0.0% |
  Potential:                                  5.076     5.076   2.9% ||
  TCI derivative:                             0.288     0.288   0.2% |
  Wait for sum:                               0.000     0.000   0.0% |
LCAO WFS Initialize:                         17.041     0.055   0.0% |
 Density initialized from wave functions:     1.217     0.609   0.4% |
  Calculate density matrix:                   0.001     0.001   0.0% |
  Construct density:                          0.606     0.606   0.3% |
  Symmetrize density:                         0.000     0.000   0.0% |
 Hamiltonian:                                15.769     0.002   0.0% |
  Atomic:                                     3.822     0.015   0.0% |
   XC Correction:                             3.807     3.807   2.2% ||
  Calculate atomic Hamiltonians:              0.079     0.079   0.0% |
  Communicate:                                0.000     0.000   0.0% |
  Hartree integrate/restrict:                 0.497     0.497   0.3% |
  Initialize Hamiltonian:                     0.000     0.000   0.0% |
  Poisson:                                    3.403     0.203   0.1% |
   Communicate from 1D:                       0.349     0.349   0.2% |
   Communicate from 2D:                       0.308     0.308   0.2% |
   Communicate to 1D:                         0.473     0.473   0.3% |
   Communicate to 2D:                         0.351     0.351   0.2% |
   FFT 1D:                                    0.522     0.522   0.3% |
   FFT 2D:                                    1.197     1.197   0.7% |
  XC 3D grid:                                 7.799     7.799   4.5% |-|
  vbar:                                       0.168     0.168   0.1% |
P tci:                                        0.130     0.130   0.1% |
Redistribute:                                 0.002     0.002   0.0% |
SCF-cycle:                                  144.918     0.097   0.1% |
 Density:                                    10.906     0.004   0.0% |
  Atomic density matrices:                    0.114     0.114   0.1% |
  Mix:                                        5.240     5.240   3.0% ||
  Multipole moments:                          0.024     0.024   0.0% |
  Normalize:                                  0.054     0.054   0.0% |
  Pseudo density:                             5.470     0.191   0.1% |
   Calculate density matrix:                  0.011     0.011   0.0% |
   Construct density:                         5.265     5.265   3.0% ||
   Symmetrize density:                        0.004     0.004   0.0% |
 Hamiltonian:                               126.984     0.014   0.0% |
  Atomic:                                    30.803     0.126   0.1% |
   XC Correction:                            30.677    30.677  17.7% |------|
  Calculate atomic Hamiltonians:              0.645     0.645   0.4% |
  Communicate:                                0.002     0.002   0.0% |
  Hartree integrate/restrict:                 3.963     3.963   2.3% ||
  Poisson:                                   27.627     1.625   0.9% |
   Communicate from 1D:                       2.833     2.833   1.6% ||
   Communicate from 2D:                       2.496     2.496   1.4% ||
   Communicate to 1D:                         3.835     3.835   2.2% ||
   Communicate to 2D:                         2.836     2.836   1.6% ||
   FFT 1D:                                    4.263     4.263   2.5% ||
   FFT 2D:                                    9.740     9.740   5.6% |-|
  XC 3D grid:                                62.607    62.607  36.1% |-------------|
  vbar:                                       1.325     1.325   0.8% |
 LCAO eigensolver:                            6.930     0.013   0.0% |
  Calculate projections:                      0.008     0.008   0.0% |
  DenseAtomicCorrection:                      0.033     0.033   0.0% |
  Distribute overlap matrix:                  0.003     0.003   0.0% |
  Orbital Layouts:                            0.086     0.086   0.0% |
  Potential matrix:                           6.788     6.788   3.9% |-|
ST tci:                                       0.039     0.039   0.0% |
Set symmetry:                                 0.001     0.001   0.0% |
TCI: Evaluate splines:                        0.023     0.023   0.0% |
mktci:                                        0.026     0.026   0.0% |
Other:                                        3.918     3.918   2.3% ||
--------------------------------------------------------------------
Total:                                                173.629 100.0%

Memory usage: 547.09 MiB
Date: Fri Feb  3 12:01:52 2023
