
  ___ ___ ___ _ _ _  
 |   |   |_  | | | | 
 | | | | | . | | | | 
 |__ |  _|___|_____|  22.8.0
 |___|_|             

User:   afonsos@vera07-4
Date:   Fri Feb  3 12:03:56 2023
Arch:   x86_64
Pid:    3309616
CWD:    /cephyr/users/afonsos/Vera/TIF320/Assignment2/Task8/T8_PBE/FD
Python: 3.10.4
gpaw:   /apps/Arch/software/GPAW/22.8.0-foss-2022a/lib/python3.10/site-packages/gpaw
_gpaw:  /apps/Arch/software/GPAW/22.8.0-foss-2022a/lib/python3.10/site-packages/
        _gpaw.cpython-310-x86_64-linux-gnu.so
ase:    /apps/Arch/software/ASE/3.22.1-foss-2022a/lib/python3.10/site-packages/ase (version 3.22.1)
numpy:  /apps/Arch/software/SciPy-bundle/2022.05-foss-2022a/lib/python3.10/site-packages/numpy (version 1.22.3)
scipy:  /apps/Arch/software/SciPy-bundle/2022.05-foss-2022a/lib/python3.10/site-packages/scipy (version 1.8.1)
libxc:  5.2.3
units:  Angstrom and eV
cores: 1
OpenMP: False
OMP_NUM_THREADS: 1

Input parameters:
  h: 0.25
  mode: {interpolation: 3,
         name: fd,
         nn: 3}
  nbands: 10
  occupations: {fixmagmom: False,
                name: fermi-dirac,
                width: 0.05}
  setups: {Na: 1}
  xc: PBE

System changes: positions, numbers, cell, pbc, initial_charges, initial_magmoms 

Initialize ...

species:
  Na:
    name: Sodium
    id: 8dbce52902f3add137ce7d12431c9cac
    Z: 11.0
    valence: 1
    core: 10
    charge: 0.0
    file: /apps/Common/software/GPAW-setups/0.9.20000/Na.1.PBE.gz
    compensation charges: {type: gauss,
                           rc: 0.43,
                           lmax: 2}
    cutoffs: {filter: 2.36,
              core: 3.60}
    valence states:
      #              energy  rcut
      - 3s(1.00)    -2.744   1.349
      - 3p(0.00)    -0.743   1.349
      -  s          24.468   1.349
  
    # Using partial waves for Na as LCAO basis

Reference energy: -26511.662975  # eV

Spin-paired calculation

Convergence criteria:
 Maximum [total energy] change in last 3 cyles: 0.0005 eV / electron
 Maximum integral of absolute [dens]ity change: 0.0001 electrons / valence electron
 Maximum integral of absolute [eigenst]ate change: 4e-08 eV^2 / valence electron
 Maximum number of scf [iter]ations: 333
 (Square brackets indicate name in SCF output, whereas a 'c' in
 the SCF output indicates the quantity has converged.)

Symmetries present (total): 1

  ( 1  0  0)
  ( 0  1  0)
  ( 0  0  1)

1 k-point (Gamma)
1 k-point in the irreducible part of the Brillouin zone
       k-points in crystal coordinates                weights
   0:     0.00000000    0.00000000    0.00000000          1/1

Wave functions: Uniform real-space grid
  Kinetic energy operator: 6*3+1=19 point O(h^6) finite-difference Laplacian
  ScaLapack parameters: grid=1x1, blocksize=None
  Wavefunction extrapolation:
    Improved wavefunction reuse through dual PAW basis 

Occupation numbers: Fermi-Dirac:
  width: 0.0500  # eV
 

Eigensolver
   Davidson(niter=2) 

Densities:
  Coarse grid: 64*64*64 grid
  Fine grid: 128*128*128 grid
  Total Charge: 0.000000 

Density mixing:
  Method: separate
  Backend: pulay
  Linear mixing parameter: 0.25
  old densities: 3
  Damping of long wavelength oscillations: 1  # (no daming) 

Hamiltonian:
  XC and Coulomb potentials evaluated on a 128*128*128 grid
  Using the PBE Exchange-Correlation functional
  Interpolation: tri-quintic (5. degree polynomial)
  Poisson solver: FastPoissonSolver using
    Stencil: 6*3+1=19 point O(h^6) finite-difference Laplacian
    FFT axes: []
    FST axes: [0, 1, 2]
 

XC parameters: PBE with 2 nearest neighbor stencil

Memory estimate:
  Process memory now: 598.85 MiB
  Calculator: 163.06 MiB
    Density: 80.09 MiB
      Arrays: 50.70 MiB
      Localized functions: 17.94 MiB
      Mixer: 11.45 MiB
    Hamiltonian: 34.46 MiB
      Arrays: 33.16 MiB
      XC: 0.00 MiB
      Poisson: 0.00 MiB
      vbar: 1.29 MiB
    Wavefunctions: 48.51 MiB
      Arrays psit_nG: 19.08 MiB
      Eigensolver: 28.62 MiB
      Projections: 0.00 MiB
      Projectors: 0.81 MiB

Total number of cores used: 1

Number of atoms: 6
Number of atomic orbitals: 24
Number of bands in calculation: 10
Number of valence electrons: 6
Bands to converge: occupied

... initialized

Initializing position-dependent things.

Density initialized from atomic densities
Creating initial wave functions:
  10 bands from LCAO basis set

           .--------------------------------------.  
          /|                                      |  
         / |                                      |  
        /  |                                      |  
       /   |                                      |  
      /    |                                      |  
     /     |                                      |  
    /      |                                      |  
   /       |                                      |  
  /        |                                      |  
 *         |                                      |  
 |         |                Na                    |  
 |         |                                      |  
 |         |                                      |  
 |         |             NaNa                     |  
 |         |                Na                    |  
 |         |                                      |  
 |         |                                      |  
 |         |          Naa                         |  
 |         |                                      |  
 |         .--------------------------------------.  
 |        /                                      /   
 |       /                                      /    
 |      /                                      /     
 |     /                                      /      
 |    /                                      /       
 |   /                                      /        
 |  /                                      /         
 | /                                      /          
 |/                                      /           
 *--------------------------------------*            

Positions:
   0 Na     9.028583    7.793906    7.808652    ( 0.0000,  0.0000,  0.0000)
   1 Na     7.913436   10.836237    7.574299    ( 0.0000,  0.0000,  0.0000)
   2 Na     7.278632    5.163763    6.995768    ( 0.0000,  0.0000,  0.0000)
   3 Na     6.971417    8.257308    5.335639    ( 0.0000,  0.0000,  0.0000)
   4 Na     8.305979    5.810149   10.290594    ( 0.0000,  0.0000,  0.0000)
   5 Na     8.678762    9.296139   10.664361    ( 0.0000,  0.0000,  0.0000)

Unit cell:
           periodic     x           y           z      points  spacing
  1. axis:    no    16.000000    0.000000    0.000000    64     0.2500
  2. axis:    no     0.000000   16.000000    0.000000    64     0.2500
  3. axis:    no     0.000000    0.000000   16.000000    64     0.2500

  Lengths:  16.000000  16.000000  16.000000
  Angles:   90.000000  90.000000  90.000000

Effective grid spacing dv^(1/3) = 0.2500

     iter     time        total  log10-change:
                         energy  eigst   dens
iter:   1 12:04:00    -5.019423
iter:   2 12:04:01    -4.844011  +0.15  -0.46
iter:   3 12:04:03    -4.863217  +0.50  -0.65
iter:   4 12:04:05    -4.859335  -0.71  -1.05
iter:   5 12:04:06    -4.861228  -1.31  -1.25
iter:   6 12:04:08    -4.861643c -1.79  -1.69
iter:   7 12:04:10    -4.861654c -2.39  -1.96
iter:   8 12:04:11    -4.861610c -2.75  -2.06
iter:   9 12:04:13    -4.861590c -3.53  -2.56
iter:  10 12:04:15    -4.861612c -3.49  -2.60
iter:  11 12:04:16    -4.861613c -4.09  -3.13
iter:  12 12:04:18    -4.861615c -4.47  -3.36
iter:  13 12:04:20    -4.861616c -4.75  -3.51
iter:  14 12:04:21    -4.861616c -5.26  -3.89
iter:  15 12:04:23    -4.861616c -5.69  -3.92
iter:  16 12:04:25    -4.861616c -6.13  -4.12c
iter:  17 12:04:26    -4.861616c -6.63  -4.37c
iter:  18 12:04:28    -4.861616c -7.00  -4.62c
iter:  19 12:04:30    -4.861616c -7.34  -4.87c
iter:  20 12:04:31    -4.861616c -7.67c -5.03c

Converged after 20 iterations.

Dipole moment: (-0.135763, 0.012607, 0.046430) |e|*Ang

Energy contributions relative to reference atoms: (reference = -26511.662975)

Kinetic:        +11.620234
Potential:      -10.434236
External:        +0.000000
XC:              -6.041723
Entropy (-ST):   -0.000037
Local:           -0.005874
--------------------------
Free energy:     -4.861634
Extrapolated:    -4.861616

 Band  Eigenvalues  Occupancy
    0     -4.15486    2.00000
    1     -2.99393    1.99999
    2     -2.98389    1.99998
    3     -1.83643    0.00003
    4     -1.67437    0.00000
    5     -1.66468    0.00000
    6     -1.36978    0.00000
    7     -0.80185    0.00000
    8     -0.79474    0.00000
    9     -0.36904    0.00000

Fermi level: -2.39694

Gap: 1.147 eV
Transition (v -> c):
  (s=0, k=0, n=2, [0.00, 0.00, 0.00]) -> (s=0, k=0, n=3, [0.00, 0.00, 0.00])

Forces in eV/Ang:
  0 Na    0.11458   -0.01725   -0.03733
  1 Na   -0.02335    0.08067   -0.01234
  2 Na   -0.04065   -0.07086   -0.03163
  3 Na   -0.04508    0.01660   -0.07500
  4 Na   -0.00759   -0.05528    0.07079
  5 Na    0.00318    0.04400    0.07967

System changes: positions 

Initializing position-dependent things.

Density initialized from wave functions
           .--------------------------------------.  
          /|                                      |  
         / |                                      |  
        /  |                                      |  
       /   |                                      |  
      /    |                                      |  
     /     |                                      |  
    /      |                                      |  
   /       |                                      |  
  /        |                                      |  
 *         |                                      |  
 |         |                Na                    |  
 |         |                                      |  
 |         |             Na                       |  
 |         |               Na                     |  
 |         |                Na                    |  
 |         |                                      |  
 |         |                                      |  
 |         |          Naa                         |  
 |         |                                      |  
 |         .--------------------------------------.  
 |        /                                      /   
 |       /                                      /    
 |      /                                      /     
 |     /                                      /      
 |    /                                      /       
 |   /                                      /        
 |  /                                      /         
 | /                                      /          
 |/                                      /           
 *--------------------------------------*            

Positions:
   0 Na     9.225743    7.764228    7.744418    ( 0.0000,  0.0000,  0.0000)
   1 Na     7.873261   10.975034    7.553074    ( 0.0000,  0.0000,  0.0000)
   2 Na     7.208680    5.041832    6.941345    ( 0.0000,  0.0000,  0.0000)
   3 Na     6.893851    8.285865    5.206591    ( 0.0000,  0.0000,  0.0000)
   4 Na     8.292927    5.715032   10.412397    ( 0.0000,  0.0000,  0.0000)
   5 Na     8.684225    9.371852   10.801443    ( 0.0000,  0.0000,  0.0000)

Unit cell:
           periodic     x           y           z      points  spacing
  1. axis:    no    16.000000    0.000000    0.000000    64     0.2500
  2. axis:    no     0.000000   16.000000    0.000000    64     0.2500
  3. axis:    no     0.000000    0.000000   16.000000    64     0.2500

  Lengths:  16.000000  16.000000  16.000000
  Angles:   90.000000  90.000000  90.000000

Effective grid spacing dv^(1/3) = 0.2500

     iter     time        total  log10-change:
                         energy  eigst   dens
iter:   1 12:04:33    -4.893429  +0.55
iter:   2 12:04:35    -4.873766  -0.44  -0.94
iter:   3 12:04:36    -4.848953  -0.90  -1.09
iter:   4 12:04:38    -4.848280  -1.86  -1.59
iter:   5 12:04:40    -4.848787c -2.08  -1.87
iter:   6 12:04:41    -4.849053c -2.41  -2.05
iter:   7 12:04:43    -4.849113c -2.98  -2.22
iter:   8 12:04:45    -4.849138c -3.42  -2.71
iter:   9 12:04:46    -4.849150c -3.77  -2.86
iter:  10 12:04:48    -4.849154c -4.03  -3.13
iter:  11 12:04:50    -4.849155c -4.37  -3.33
iter:  12 12:04:51    -4.849156c -4.83  -3.55
iter:  13 12:04:53    -4.849156c -5.24  -3.86
iter:  14 12:04:55    -4.849156c -5.63  -3.86
iter:  15 12:04:56    -4.849156c -5.87  -4.06c
iter:  16 12:04:58    -4.849156c -6.05  -4.16c
iter:  17 12:05:00    -4.849156c -6.67  -4.04c
iter:  18 12:05:01    -4.849156c -7.15  -4.83c
iter:  19 12:05:03    -4.849156c -7.53c -4.93c

Converged after 19 iterations.

Dipole moment: (-0.117034, 0.007968, 0.042300) |e|*Ang

Energy contributions relative to reference atoms: (reference = -26511.662975)

Kinetic:         +5.839211
Potential:       -5.868360
External:        +0.000000
XC:              -4.814578
Entropy (-ST):   -0.000082
Local:           -0.005389
--------------------------
Free energy:     -4.849197
Extrapolated:    -4.849156

 Band  Eigenvalues  Occupancy
    0     -4.00708    2.00000
    1     -2.94733    1.99997
    2     -2.94454    1.99996
    3     -1.88102    0.00006
    4     -1.72254    0.00000
    5     -1.70670    0.00000
    6     -1.30647    0.00000
    7     -0.83809    0.00000
    8     -0.83473    0.00000
    9     -0.45787    0.00000

Fermi level: -2.39789

Gap: 1.064 eV
Transition (v -> c):
  (s=0, k=0, n=2, [0.00, 0.00, 0.00]) -> (s=0, k=0, n=3, [0.00, 0.00, 0.00])

Forces in eV/Ang:
  0 Na   -0.12093    0.01267    0.04203
  1 Na    0.01949   -0.10119    0.01478
  2 Na    0.03939    0.08462    0.03144
  3 Na    0.05509   -0.01370    0.08516
  4 Na    0.00900    0.06844   -0.07645
  5 Na   -0.00007   -0.04901   -0.09881

System changes: positions 

Initializing position-dependent things.

Density initialized from wave functions
           .--------------------------------------.  
          /|                                      |  
         / |                                      |  
        /  |                                      |  
       /   |                                      |  
      /    |                                      |  
     /     |                                      |  
    /      |                                      |  
   /       |                                      |  
  /        |                                      |  
 *         |                                      |  
 |         |                Na                    |  
 |         |                                      |  
 |         |             Na                       |  
 |         |               Na                     |  
 |         |                Na                    |  
 |         |                                      |  
 |         |                                      |  
 |         |          Naa                         |  
 |         |                                      |  
 |         .--------------------------------------.  
 |        /                                      /   
 |       /                                      /    
 |      /                                      /     
 |     /                                      /      
 |    /                                      /       
 |   /                                      /        
 |  /                                      /         
 | /                                      /          
 |/                                      /           
 *--------------------------------------*            

Positions:
   0 Na     9.136206    7.765510    7.779391    ( 0.0000,  0.0000,  0.0000)
   1 Na     7.880135   10.876602    7.566595    ( 0.0000,  0.0000,  0.0000)
   2 Na     7.232694    5.118883    6.961780    ( 0.0000,  0.0000,  0.0000)
   3 Na     6.945633    8.281301    5.278446    ( 0.0000,  0.0000,  0.0000)
   4 Na     8.301044    5.780502   10.353258    ( 0.0000,  0.0000,  0.0000)
   5 Na     8.688988    9.331799   10.706708    ( 0.0000,  0.0000,  0.0000)

Unit cell:
           periodic     x           y           z      points  spacing
  1. axis:    no    16.000000    0.000000    0.000000    64     0.2500
  2. axis:    no     0.000000   16.000000    0.000000    64     0.2500
  3. axis:    no     0.000000    0.000000   16.000000    64     0.2500

  Lengths:  16.000000  16.000000  16.000000
  Angles:   90.000000  90.000000  90.000000

Effective grid spacing dv^(1/3) = 0.2500

     iter     time        total  log10-change:
                         energy  eigst   dens
iter:   1 12:05:05    -4.896908  -0.08
iter:   2 12:05:07    -4.887389  -1.07  -1.19
iter:   3 12:05:09    -4.880690  -1.55  -1.39
iter:   4 12:05:10    -4.880763  -2.09  -1.92
iter:   5 12:05:12    -4.880887c -2.53  -2.19
iter:   6 12:05:14    -4.880939c -3.00  -2.35
iter:   7 12:05:15    -4.880950c -3.57  -2.91
iter:   8 12:05:17    -4.880955c -4.09  -2.96
iter:   9 12:05:19    -4.880956c -4.48  -3.34
iter:  10 12:05:21    -4.880957c -4.87  -3.25
iter:  11 12:05:22    -4.880957c -5.30  -3.85
iter:  12 12:05:24    -4.880957c -5.53  -3.86
iter:  13 12:05:26    -4.880957c -5.83  -4.22c
iter:  14 12:05:27    -4.880957c -6.28  -4.54c
iter:  15 12:05:29    -4.880957c -6.76  -4.62c
iter:  16 12:05:31    -4.880957c -7.27  -4.62c
iter:  17 12:05:33    -4.880957c -7.68c -4.73c

Converged after 17 iterations.

Dipole moment: (-0.127575, 0.005090, 0.047222) |e|*Ang

Energy contributions relative to reference atoms: (reference = -26511.662975)

Kinetic:         +8.951069
Potential:       -8.333065
External:        +0.000000
XC:              -5.493284
Entropy (-ST):   -0.000055
Local:           -0.005650
--------------------------
Free energy:     -4.880985
Extrapolated:    -4.880957

 Band  Eigenvalues  Occupancy
    0     -4.09249    2.00000
    1     -2.97088    1.99998
    2     -2.96935    1.99998
    3     -1.86200    0.00004
    4     -1.69660    0.00000
    5     -1.67711    0.00000
    6     -1.34146    0.00000
    7     -0.82091    0.00000
    8     -0.81836    0.00000
    9     -0.40719    0.00000

Fermi level: -2.40022

Gap: 1.107 eV
Transition (v -> c):
  (s=0, k=0, n=2, [0.00, 0.00, 0.00]) -> (s=0, k=0, n=3, [0.00, 0.00, 0.00])

Forces in eV/Ang:
  0 Na   -0.00107   -0.00237   -0.00608
  1 Na   -0.00060   -0.00030    0.00040
  2 Na    0.00176    0.00772    0.00676
  3 Na    0.00305   -0.00462    0.00330
  4 Na   -0.00297   -0.00077   -0.00931
  5 Na    0.00154    0.00082    0.00233

Writing to Na6_2nd_Lowest_E/Na6_2nd_Lowest_E.gpw (mode='all')

Timing:                                      incl.     excl.
-------------------------------------------------------------------
Density initialized from wave functions:     0.081     0.081   0.1% |
 Symmetrize density:                         0.000     0.000   0.0% |
Forces:                                      0.393     0.393   0.4% |
Hamiltonian:                                 2.982     0.000   0.0% |
 Atomic:                                     0.685     0.003   0.0% |
  XC Correction:                             0.682     0.682   0.7% |
 Calculate atomic Hamiltonians:              0.014     0.014   0.0% |
 Communicate:                                0.000     0.000   0.0% |
 Hartree integrate/restrict:                 0.089     0.089   0.1% |
 Initialize Hamiltonian:                     0.003     0.003   0.0% |
 Poisson:                                    0.619     0.036   0.0% |
  Communicate from 1D:                       0.064     0.064   0.1% |
  Communicate from 2D:                       0.057     0.057   0.1% |
  Communicate to 1D:                         0.080     0.080   0.1% |
  Communicate to 2D:                         0.064     0.064   0.1% |
  FFT 1D:                                    0.097     0.097   0.1% |
  FFT 2D:                                    0.221     0.221   0.2% |
 XC 3D grid:                                 1.542     1.542   1.6% ||
 vbar:                                       0.030     0.030   0.0% |
LCAO initialization:                         0.056     0.017   0.0% |
 LCAO eigensolver:                           0.011     0.000   0.0% |
  Calculate projections:                     0.000     0.000   0.0% |
  DenseAtomicCorrection:                     0.000     0.000   0.0% |
  Distribute overlap matrix:                 0.000     0.000   0.0% |
  Orbital Layouts:                           0.001     0.001   0.0% |
  Potential matrix:                          0.010     0.010   0.0% |
 LCAO to grid:                               0.014     0.014   0.0% |
 Set positions (LCAO WFS):                   0.014     0.003   0.0% |
  Basic WFS set positions:                   0.000     0.000   0.0% |
  Basis functions set positions:             0.000     0.000   0.0% |
  P tci:                                     0.008     0.008   0.0% |
  ST tci:                                    0.002     0.002   0.0% |
  mktci:                                     0.002     0.002   0.0% |
Redistribute:                                0.001     0.001   0.0% |
SCF-cycle:                                  90.858     0.047   0.0% |
 Davidson:                                  32.386    13.140  13.6% |----|
  Apply hamiltonian:                         3.198     3.198   3.3% ||
  Subspace diag:                             4.790     0.006   0.0% |
   calc_h_matrix:                            3.752     0.545   0.6% |
    Apply hamiltonian:                       3.207     3.207   3.3% ||
   diagonalize:                              0.014     0.014   0.0% |
   rotate_psi:                               1.017     1.017   1.1% |
  calc. matrices:                            9.508     3.090   3.2% ||
   Apply hamiltonian:                        6.418     6.418   6.6% |--|
  diagonalize:                               0.036     0.036   0.0% |
  rotate_psi:                                1.715     1.715   1.8% ||
 Density:                                    2.388     0.001   0.0% |
  Atomic density matrices:                   0.043     0.043   0.0% |
  Mix:                                       2.076     2.076   2.1% ||
  Multipole moments:                         0.010     0.010   0.0% |
  Pseudo density:                            0.258     0.258   0.3% |
   Symmetrize density:                       0.001     0.001   0.0% |
 Hamiltonian:                               55.976     0.005   0.0% |
  Atomic:                                   12.392     0.048   0.0% |
   XC Correction:                           12.344    12.344  12.8% |----|
  Calculate atomic Hamiltonians:             0.247     0.247   0.3% |
  Communicate:                               0.001     0.001   0.0% |
  Hartree integrate/restrict:                1.599     1.599   1.7% ||
  Poisson:                                  11.103     0.642   0.7% |
   Communicate from 1D:                      1.131     1.131   1.2% |
   Communicate from 2D:                      1.003     1.003   1.0% |
   Communicate to 1D:                        1.553     1.553   1.6% ||
   Communicate to 2D:                        1.138     1.138   1.2% |
   FFT 1D:                                   1.720     1.720   1.8% ||
   FFT 2D:                                   3.915     3.915   4.0% |-|
  XC 3D grid:                               30.090    30.090  31.1% |-----------|
  vbar:                                      0.539     0.539   0.6% |
 Orthonormalize:                             0.062     0.000   0.0% |
  calc_s_matrix:                             0.017     0.017   0.0% |
  inverse-cholesky:                          0.001     0.001   0.0% |
  projections:                               0.009     0.009   0.0% |
  rotate_psi_s:                              0.034     0.034   0.0% |
Set symmetry:                                0.001     0.001   0.0% |
Other:                                       2.414     2.414   2.5% ||
-------------------------------------------------------------------
Total:                                                96.786 100.0%

Memory usage: 598.85 MiB
Date: Fri Feb  3 12:05:33 2023
