
  ___ ___ ___ _ _ _  
 |   |   |_  | | | | 
 | | | | | . | | | | 
 |__ |  _|___|_____|  22.8.0
 |___|_|             

User:   afonsos@vera18-4
Date:   Fri Feb  3 00:43:42 2023
Arch:   x86_64
Pid:    3579271
CWD:    /cephyr/users/afonsos/Vera/TIF320/Assignment2/Task8/T8_LCAO_dzp
Python: 3.10.4
gpaw:   /apps/Arch/software/GPAW/22.8.0-foss-2022a/lib/python3.10/site-packages/gpaw
_gpaw:  /apps/Arch/software/GPAW/22.8.0-foss-2022a/lib/python3.10/site-packages/
        _gpaw.cpython-310-x86_64-linux-gnu.so
ase:    /apps/Arch/software/ASE/3.22.1-foss-2022a/lib/python3.10/site-packages/ase (version 3.22.1)
numpy:  /apps/Arch/software/SciPy-bundle/2022.05-foss-2022a/lib/python3.10/site-packages/numpy (version 1.22.3)
scipy:  /apps/Arch/software/SciPy-bundle/2022.05-foss-2022a/lib/python3.10/site-packages/scipy (version 1.8.1)
libxc:  5.2.3
units:  Angstrom and eV
cores: 1
OpenMP: False
OMP_NUM_THREADS: 1

Input parameters:
  basis: dzp
  h: 0.25
  mode: lcao
  nbands: 10
  occupations: {fixmagmom: False,
                name: fermi-dirac,
                width: 0.05}
  setups: {Na: 1}

System changes: positions, numbers, cell, pbc, initial_charges, initial_magmoms 

Initialize ...

species:
  Na:
    name: Sodium
    id: fa5c50181d04022fed15b2593599c257
    Z: 11.0
    valence: 1
    core: 10
    charge: 0.0
    file: /apps/Common/software/GPAW-setups/0.9.20000/Na.1.LDA.gz
    compensation charges: {type: gauss,
                           rc: 0.43,
                           lmax: 2}
    cutoffs: {filter: 2.36,
              core: 3.60}
    valence states:
      #              energy  rcut
      - 3s(1.00)    -2.819   1.349
      - 3p(0.00)    -0.774   1.349
      -  s          24.392   1.349
  
    # LCAO basis set for Na:
    #   Name: 1.dzp
    #   File: /apps/Common/software/GPAW-setups/0.9.20000/Na.1.dzp.basis.gz
    #   Number of radial functions: 3
    #   Number of spherical harmonics: 5
    #     l=0, rc=11.7656 Bohr: 3s-sz confined orbital
    #     l=0, rc=7.1094 Bohr: 3s-dz split-valence wave
    #     l=1, rc=11.7656 Bohr: p-type Gaussian polarization
    #   Number of RI-basis functions 0

Reference energy: -26392.251304  # eV

Spin-paired calculation

Convergence criteria:
 Maximum [total energy] change in last 3 cyles: 0.0005 eV / electron
 Maximum integral of absolute [dens]ity change: 0.0001 electrons / valence electron
 Maximum integral of absolute [eigenst]ate change: 4e-08 eV^2 / valence electron
 Maximum number of scf [iter]ations: 333
 (Square brackets indicate name in SCF output, whereas a 'c' in
 the SCF output indicates the quantity has converged.)

Symmetries present (total): 1

  ( 1  0  0)
  ( 0  1  0)
  ( 0  0  1)

1 k-point (Gamma)
1 k-point in the irreducible part of the Brillouin zone
       k-points in crystal coordinates                weights
   0:     0.00000000    0.00000000    0.00000000          1/1

Wave functions: LCAO
  Diagonalizer: Serial LAPACK
  Atomic Correction: dense with blas
  Data-type: float
 

Occupation numbers: Fermi-Dirac:
  width: 0.0500  # eV
 

Eigensolver
   LCAO using direct dense diagonalizer 

Densities:
  Coarse grid: 64*64*64 grid
  Fine grid: 128*128*128 grid
  Total Charge: 0.000000 

Density mixing:
  Method: separate
  Backend: pulay
  Linear mixing parameter: 0.25
  old densities: 3
  Damping of long wavelength oscillations: 1  # (no daming) 

Hamiltonian:
  XC and Coulomb potentials evaluated on a 128*128*128 grid
  Using the LDA Exchange-Correlation functional
  Interpolation: tri-quintic (5. degree polynomial)
  Poisson solver: FastPoissonSolver using
    Stencil: 6*3+1=19 point O(h^6) finite-difference Laplacian
    FFT axes: []
    FST axes: [0, 1, 2]
 

Memory estimate:
  Process memory now: 522.80 MiB
  Calculator: 127.06 MiB
    Density: 80.09 MiB
      Arrays: 50.70 MiB
      Localized functions: 17.94 MiB
      Mixer: 11.45 MiB
    Hamiltonian: 34.46 MiB
      Arrays: 33.16 MiB
      XC: 0.00 MiB
      Poisson: 0.00 MiB
      vbar: 1.29 MiB
    Wavefunctions: 12.52 MiB
      C [qnM]: 0.00 MiB
      S, T [2 x qmm]: 0.01 MiB
      P [aqMi]: 0.00 MiB
      BasisFunctions: 12.50 MiB
      Eigensolver: 0.00 MiB

Total number of cores used: 1

Number of atoms: 6
Number of atomic orbitals: 30
Number of bands in calculation: 10
Number of valence electrons: 6
Bands to converge: occupied

... initialized

Initializing position-dependent things.

Density initialized from atomic densities
           .--------------------------------------.  
          /|                                      |  
         / |                                      |  
        /  |                                      |  
       /   |                                      |  
      /    |                                      |  
     /     |                                      |  
    /      |                                      |  
   /       |                                      |  
  /        |                                      |  
 *         |                                      |  
 |         |                Na                    |  
 |         |                                      |  
 |         |                                      |  
 |         |             NaNa                     |  
 |         |                Na                    |  
 |         |                                      |  
 |         |                                      |  
 |         |          Naa                         |  
 |         |                                      |  
 |         .--------------------------------------.  
 |        /                                      /   
 |       /                                      /    
 |      /                                      /     
 |     /                                      /      
 |    /                                      /       
 |   /                                      /        
 |  /                                      /         
 | /                                      /          
 |/                                      /           
 *--------------------------------------*            

Positions:
   0 Na     9.028583    7.793906    7.808652    ( 0.0000,  0.0000,  0.0000)
   1 Na     7.913436   10.836237    7.574299    ( 0.0000,  0.0000,  0.0000)
   2 Na     7.278632    5.163763    6.995768    ( 0.0000,  0.0000,  0.0000)
   3 Na     6.971417    8.257308    5.335639    ( 0.0000,  0.0000,  0.0000)
   4 Na     8.305979    5.810149   10.290594    ( 0.0000,  0.0000,  0.0000)
   5 Na     8.678762    9.296139   10.664361    ( 0.0000,  0.0000,  0.0000)

Unit cell:
           periodic     x           y           z      points  spacing
  1. axis:    no    16.000000    0.000000    0.000000    64     0.2500
  2. axis:    no     0.000000   16.000000    0.000000    64     0.2500
  3. axis:    no     0.000000    0.000000   16.000000    64     0.2500

  Lengths:  16.000000  16.000000  16.000000
  Angles:   90.000000  90.000000  90.000000

Effective grid spacing dv^(1/3) = 0.2500

     iter     time        total  log10-change:
                         energy  eigst   dens
iter:   1 00:43:44    -5.126195       c
iter:   2 00:43:44    -4.965606       c -0.62
iter:   3 00:43:45    -4.893926       c -0.84
iter:   4 00:43:45    -4.889998       c -1.40
iter:   5 00:43:46    -4.889965       c -2.06
iter:   6 00:43:46    -4.889935c      c -2.22
iter:   7 00:43:47    -4.889933c      c -2.95
iter:   8 00:43:47    -4.889933c      c -3.26
iter:   9 00:43:48    -4.889933c      c -3.49
iter:  10 00:43:48    -4.889933c      c -3.89
iter:  11 00:43:49    -4.889933c      c -4.12c

Converged after 11 iterations.

Dipole moment: (0.130577, -0.003601, -0.040350) |e|*Ang

Energy contributions relative to reference atoms: (reference = -26392.251304)

Kinetic:        +20.195882
Potential:      -17.794590
External:        +0.000000
XC:              -7.316446
Entropy (-ST):   -0.000007
Local:           +0.025225
--------------------------
Free energy:     -4.889937
Extrapolated:    -4.889933

 Band  Eigenvalues  Occupancy
    0     -4.34782    2.00000
    1     -3.07527    2.00000
    2     -3.06374    2.00000
    3     -1.74462    0.00000
    4     -1.55901    0.00000
    5     -1.54657    0.00000
    6      1.92938    0.00000
    7      1.93225    0.00000
    8      2.19612    0.00000
    9      3.26806    0.00000

Fermi level: -2.39063

Gap: 1.319 eV
Transition (v -> c):
  (s=0, k=0, n=2, [0.00, 0.00, 0.00]) -> (s=0, k=0, n=3, [0.00, 0.00, 0.00])

Forces in eV/Ang:
  0 Na   -0.00278   -0.00800   -0.00170
  1 Na   -0.00445   -0.00746   -0.00049
  2 Na   -0.00203    0.00635   -0.00243
  3 Na    0.00545    0.00275   -0.00017
  4 Na    0.00164    0.00404    0.00207
  5 Na    0.00250    0.00021    0.00115

Writing to Na6_2nd_Lowest_E/Na6_2nd_Lowest_E.gpw (mode='all')

Timing:                              incl.     excl.
-----------------------------------------------------------
Basic WFS set positions:             0.000     0.000   0.0% |
Basis functions set positions:       0.027     0.027   0.4% |
Forces:                              0.350     0.066   0.9% |
 LCAO forces:                        0.284     0.000   0.0% |
  Atomic Hamiltonian force:          0.001     0.001   0.0% |
  Initial:                           0.000     0.000   0.0% |
   Get density matrix:               0.000     0.000   0.0% |
  Paw correction:                    0.001     0.001   0.0% |
  Potential:                         0.271     0.271   3.7% ||
  TCI derivative:                    0.012     0.012   0.2% |
  Wait for sum:                      0.000     0.000   0.0% |
LCAO WFS Initialize:                 0.413     0.032   0.4% |
 Hamiltonian:                        0.380     0.000   0.0% |
  Atomic:                            0.051     0.001   0.0% |
   XC Correction:                    0.051     0.051   0.7% |
  Calculate atomic Hamiltonians:     0.003     0.003   0.0% |
  Communicate:                       0.000     0.000   0.0% |
  Hartree integrate/restrict:        0.024     0.024   0.3% |
  Initialize Hamiltonian:            0.002     0.002   0.0% |
  Poisson:                           0.159     0.010   0.1% |
   Communicate from 1D:              0.018     0.018   0.2% |
   Communicate from 2D:              0.016     0.016   0.2% |
   Communicate to 1D:                0.020     0.020   0.3% |
   Communicate to 2D:                0.018     0.018   0.2% |
   FFT 1D:                           0.023     0.023   0.3% |
   FFT 2D:                           0.056     0.056   0.8% |
  XC 3D grid:                        0.131     0.131   1.8% ||
  vbar:                              0.008     0.008   0.1% |
P tci:                               0.006     0.006   0.1% |
SCF-cycle:                           4.962     0.006   0.1% |
 Density:                            0.699     0.000   0.0% |
  Atomic density matrices:           0.005     0.005   0.1% |
  Mix:                               0.319     0.319   4.3% |-|
  Multipole moments:                 0.001     0.001   0.0% |
  Normalize:                         0.003     0.003   0.0% |
  Pseudo density:                    0.370     0.012   0.2% |
   Calculate density matrix:         0.001     0.001   0.0% |
   Construct density:                0.357     0.357   4.9% |-|
   Symmetrize density:               0.000     0.000   0.0% |
 Hamiltonian:                        3.776     0.001   0.0% |
  Atomic:                            0.511     0.006   0.1% |
   XC Correction:                    0.504     0.504   6.9% |--|
  Calculate atomic Hamiltonians:     0.035     0.035   0.5% |
  Communicate:                       0.000     0.000   0.0% |
  Hartree integrate/restrict:        0.242     0.242   3.3% ||
  Poisson:                           1.605     0.100   1.4% ||
   Communicate from 1D:              0.176     0.176   2.4% ||
   Communicate from 2D:              0.159     0.159   2.2% ||
   Communicate to 1D:                0.220     0.220   3.0% ||
   Communicate to 2D:                0.176     0.176   2.4% ||
   FFT 1D:                           0.219     0.219   3.0% ||
   FFT 2D:                           0.555     0.555   7.5% |--|
  XC 3D grid:                        1.302     1.302  17.7% |------|
  vbar:                              0.081     0.081   1.1% |
 LCAO eigensolver:                   0.481     0.001   0.0% |
  Calculate projections:             0.000     0.000   0.0% |
  DenseAtomicCorrection:             0.002     0.002   0.0% |
  Distribute overlap matrix:         0.000     0.000   0.0% |
  Orbital Layouts:                   0.004     0.004   0.1% |
  Potential matrix:                  0.473     0.473   6.4% |--|
ST tci:                              0.002     0.002   0.0% |
Set symmetry:                        0.001     0.001   0.0% |
TCI: Evaluate splines:               0.014     0.014   0.2% |
mktci:                               0.001     0.001   0.0% |
Other:                               1.578     1.578  21.5% |--------|
-----------------------------------------------------------
Total:                                         7.353 100.0%

Memory usage: 522.80 MiB
Date: Fri Feb  3 00:43:49 2023
