7
Lattice="16.0 0.0 0.0 0.0 16.0 0.0 0.0 0.0 16.0" Properties=species:S:1:pos:R:3:tags:I:1:forces:R:3:magmoms:R:1 energy=-5.873667830979537 dipole="-0.0023185573070224888 0.001277243736448278 0.0010692655537996498" magmom=0.0 free_energy=-5.908329175785232 pbc="F F F"
Na       9.76750237       6.24038636       6.40620121        0       0.00360863      -0.00276498      -0.00106388       0.00000000
Na       7.48018363       8.95218924      10.57128145        1       0.00418893       0.00159444       0.00161155       0.00000000
Na       9.46974831       6.32350336       9.77041961        2      -0.00345862       0.00248731       0.00343756       0.00000000
Na       9.81713996       9.29523047       8.03908860        3      -0.00320161      -0.00368274      -0.00180873       0.00000000
Na       6.60101962      10.51142416       7.69433079        4      -0.00138981      -0.00146891       0.00451018       0.00000000
Na       7.99978114       8.81440957       5.12949458        5       0.00015490       0.00271114      -0.00555032       0.00000000
Na       6.71184815       7.05038701       7.80492599        6       0.00073503      -0.00161567      -0.00179289       0.00000000
