7
Lattice="16.0 0.0 0.0 0.0 16.0 0.0 0.0 0.0 16.0" Properties=species:S:1:pos:R:3:forces:R:3:magmoms:R:1 energy=-5.728972457687495 dipole="0.004628342939887912 0.0013754497728119793 0.0012356273434005229" magmom=0.0 free_energy=-5.763642610265207 pbc="F F F"
Na       9.62681370       8.25894505       6.59399767      -0.00448687      -0.00199440      -0.00087974       0.00000000
Na       9.32087881       5.15550718       7.83683854       0.01097080      -0.00530384       0.00067365       0.00000000
Na       7.49064818      10.36056830       8.41610584      -0.00280619      -0.00408406      -0.00153869       0.00000000
Na       5.93341073       8.48850936      10.72753423       0.00108827       0.00618632       0.01113641       0.00000000
Na       6.45745360       6.99297361       7.71223477      -0.00337393      -0.00204525      -0.00029037       0.00000000
Na       6.73781873       9.37383212       5.29390321       0.00324774       0.01013347      -0.00773388       0.00000000
Na       9.12088901       7.70319504      10.01644101      -0.00436009      -0.00255357      -0.00168471       0.00000000
