8
Lattice="16.0 0.0 0.0 0.0 16.0 0.0 0.0 0.0 16.0" Properties=species:S:1:pos:R:3:forces:R:3:magmoms:R:1 energy=-7.28092711478351 dipole="-0.00047186819371396703 -0.0006052422543304702 0.00013533004004813378" magmom=0.0 free_energy=-7.280928640606872 pbc="F F F"
Na       5.24713903       7.68100097       8.62580517       0.00001612      -0.00124320      -0.00025508       0.00000000
Na       7.89733547       6.07633639      10.13130500      -0.00636531       0.00530609       0.00321523       0.00000000
Na       9.83011613       8.51660746       8.70239909       0.00102131       0.00249313      -0.01644476       0.00000000
Na       7.08378494      10.58990250       7.62808364       0.00492208      -0.00133664      -0.00123640       0.00000000
Na       5.74454598       8.29432506       5.45632392       0.00007601      -0.00128189       0.00374094       0.00000000
Na       7.25217188       9.54598522      10.70779751      -0.00328460      -0.00848311       0.00271538       0.00000000
Na       9.23812162       8.93593354       5.51117543      -0.00091097      -0.00138447       0.00923478       0.00000000
Na       7.92696719       6.05745690       6.87518106       0.00506200       0.00371729       0.00079727       0.00000000
