8
Lattice="16.0 0.0 0.0 0.0 16.0 0.0 0.0 0.0 16.0" Properties=species:S:1:pos:R:3:tags:I:1:forces:R:3:magmoms:R:1 energy=-7.2420076788931995 dipole="-0.07033143779533098 0.02234346672937179 0.011955229636853752" magmom=0.0 free_energy=-7.242009366140083 pbc="F F F"
Na       7.02442663       9.49699165      10.94111069        0      -0.00203146      -0.00126290       0.00112202       0.00000000
Na       5.66299831       7.17191809       9.01802562        1       0.00116415      -0.00310930      -0.00379279       0.00000000
Na       9.02948247       6.84409128       9.95752604        2       0.00488756       0.01106763      -0.00391366       0.00000000
Na       6.54365902      10.50689630       7.78466110        3      -0.00232709      -0.00369978      -0.00306893       0.00000000
Na       9.80868117      10.00601061       8.92075373        4       0.00346544       0.00917451       0.00838756       0.00000000
Na       5.78260426       7.96927724       5.77081398        5       0.00113772       0.00855987       0.00366172       0.00000000
Na       9.10370092       8.94695366       5.96542844        6      -0.00232673      -0.01515577       0.00714227       0.00000000
Na       8.20596365       5.81272978       7.02460217        7      -0.00567474      -0.00491411      -0.00875707       0.00000000
