6
Lattice="16.0 0.0 0.0 0.0 16.0 0.0 0.0 0.0 16.0" Properties=species:S:1:pos:R:3:forces:R:3:magmoms:R:1 energy=-4.933902774084619 dipole="0.0024297982209363386 0.012929135386818435 0.0016808943635588686" magmom=0.0 free_energy=-4.933903582722756 pbc="F F F"
Na       4.98607418       5.75006502       7.63393513      -0.00268670      -0.00100685      -0.00052466       0.00000000
Na       8.25541405       6.01029797       7.36365520       0.00958953       0.00608531       0.00461838       0.00000000
Na       6.18990926       8.77658442       8.15053925      -0.00291842      -0.00577709      -0.00324799       0.00000000
Na      11.51567227       6.55669050       7.24254520      -0.00634089      -0.00038868      -0.00208248       0.00000000
Na       9.68000182       9.21600323       7.89810909       0.00152244      -0.00306196       0.00054510       0.00000000
Na       7.62312614      11.70524172       8.57455045       0.00279669       0.00438707       0.00034677       0.00000000
