6
Lattice="16.0 0.0 0.0 0.0 16.0 0.0 0.0 0.0 16.0" Properties=species:S:1:pos:R:3:tags:I:1:forces:R:3:magmoms:R:1 energy=-4.890030636264909 dipole="0.13132123615654348 -0.0026490978385240714 -0.03897455272517918" magmom=0.0 free_energy=-4.890034294695439 pbc="F F F"
Na       8.44549916       7.98000460       8.25755532        0      -0.00237700      -0.00715573      -0.00126347       0.00000000
Na       7.33035199      11.02233547       8.02320235        1      -0.00604656      -0.00740043       0.00014198       0.00000000
Na       6.69554819       5.34986192       7.44467107        2      -0.00059015       0.00538399      -0.00171712       0.00000000
Na       6.38833293       8.44340664       5.78454233        3       0.00509357       0.00371726      -0.00056995       0.00000000
Na       7.72289538       5.99624756      10.73949744        4       0.00312585       0.00438232       0.00309429       0.00000000
Na       8.09567804       9.48223767      11.11326448        5       0.00139402       0.00169705       0.00035071       0.00000000
